,ID,formula,smiles,HOMO_LUMO_gap
1180,AXOTIS,C19 H14 N2 O2 S1,COc1ccc2N=C(Sc2c1)N=Cc1c(O)ccc2ccccc12,5.325540159999999
1181,AXOWOZ,C13 H10 N2 S1,N1c2ccccc2SN=C1c1ccccc1,6.122289530000001
1182,AXOWUF,C11 H8 N4 S1,N1C(=NSc2nccnc12)c1ccccc1,5.79357599
1183,AXOXAM,C13 H6 F4 N2 S1,Fc1c(F)c(F)c2SN=C(Nc2c1F)c1ccccc1,5.72282639
1184,AXOXAN,C27 H20 N2 S1,S1C(=NC(=C1N(c1ccccc1)c1ccccc1)c1ccccc1)c1ccccc1,5.9568443
1188,AXOZAO,C14 H14 O1 S2,CC1=CC(=O)C(SCCS1)=Cc1ccccc1,5.95466739
1189,AXOZES,C12 H10 O1 S1,CC1=CC(=O)C(S1)=Cc1ccccc1,5.707588019999999
1190,AXUBOM,C36 H32 F2 N2 O2,CCC(=O)c1ccccc1N1C(C(C(Cc2ccc(F)cc2)C1=O)c1ccc(F)cc1)C1=C(CC)c2ccccc2N1,6.0787513
1191,AXUQUH,C12 H7 Cl1 N2 O3,ClC1=C(OCCC#N)C(=O)c2ncccc2C1=O,5.90160519
1192,AXURAO,C13 H7 F6 N1 O4,FC(F)(F)COC1=C(OCC(F)(F)F)C(=O)c2ncccc2C1=O,5.984327799999999
1193,AYEQUS,C27 H22 Br1 Cl1 N2 O2,Clc1ccccc1C1C2CCCN2C2(C1C(=O)c1ccc(Br)cc1)C(=O)Nc1ccccc21,6.557943799999999
1194,AYEXIN,C29 H19 Cl1 O1,Clc1ccc(cc1)C12Oc3ccccc3C1=Cc1ccccc1C=C2c1ccccc1,5.818338349999999
1195,AYIBER,C31 H30 N6 O4,COc1cc(cc(C=NCCCN=Cc2cc(cc(OC)c2O)N=Nc2ccccc2)c1O)N=Nc1ccccc1,5.556836939999999
1196,AYICES,C28 H27 N3,CN1C2CCC1C(=Cc1ccccc1)C1=NN(C(C21)c1ccccc1)c1ccccc1,5.852352580000001
1197,AYIHOF,C25 H18 N4,N#Cc1ccc(C=Cc2ccc(cc2)N(c2ccccn2)c2ccccn2)cc1,5.6387432099999995
1198,AYILAV,C37 H30 N4,C(N(c1ccccn1)c1ccccn1)c1ccc(cc1)C=Cc1ccc(cc1)N(c1ccccc1)c1ccccc1,5.91847625
1199,AYOCIA,C23 H16,C1C=C(c2ccccc12)c1c2ccccc2cc2ccccc12,5.48935271
1200,AYORAI,C19 H20 N4 O1 S1,CCCSC1=NN=C(N1N=Cc1ccccc1O)c1ccc(C)cc1,5.9201089399999995
1201,AYOTEO,C19 H18,C=CCCCc1c2ccccc2cc2ccccc12,5.39765033
1202,AYOTUE,C16 H13 Cl1 N2 S1,Clc1ccc(cc1)C=NC1=C(C#N)C2=C(CCCC2)S1,5.762827120000001
1203,AYOZAR01,C7 H4 S3,S=C1SSc2ccccc12,5.51193816
1204,AYOZUK,C18 H18 O5,COc1cc(OC)c(C=CC(=O)c2ccccc2O)cc1OC,5.54513605
1205,AYUCAZ,C24 H18 O3,COc1cccc(c1)C=C1C=C(OC1=O)c1ccc(cc1)c1ccccc1,5.09886933
1206,AYUCUT,C25 H30 O8,COCOc1ccc(C=CC(=O)c2c(O)cc(OC)c3CCC(C)(C)Oc23)cc1OCOC,5.96119812
1207,AYUDAA,C22 H22 O6,COc1cc(O)c(C(=O)C=Cc2ccc3OCOc3c2)c2OC(C)(C)CCc12,5.9606539
1208,AYUDEE,C20 H20 N4 O4 S1,CCOC(=O)C1=C(SC(=C1C(=O)OCC)N=CC1=CC=CN1)N=CC1=CC=CN1,4.82049686
1209,AYUDUU,C13 H12 N2 O3,CC1=NOC(=C1C)N=Cc1ccc2OCOc2c1,5.9982055999999995
1210,AYUGOR,C22 H20 N4 O3 S1,CC(=NNC(=O)c1ccccc1)C(=NNc1ccccc1)S(=O)(=O)c1ccccc1,5.67629492
1211,AYUHOT,C34 H20 F4 N1 O2 P1,Fc1c(F)c(F)c2C(=C(C(=Nc3ccccc3)C(=O)c2c1F)[P+](c1ccccc1)(c1ccccc1)c1ccccc1)[O-],5.2809135000000005
1212,AYUJAG,C12 H9 I1 N2,Ic1ccccc1N=Nc1ccccc1,6.19140644
1214,AYUKIP,C16 H11 N3 O2,O=C1C=CC(=O)N1c1ccc(cc1)N=Nc1ccccc1,5.81316819
1215,AYUMOX,C21 H19 Cl1 F3 N3 O2,CCN(CC)c1ccc2C=C(C(=O)Oc2c1)C(=NNc1ccccc1Cl)C(F)(F)F,5.24200121
1216,AYUNAJ,C12 H10 O3 S1,CS(C)=C1C(=O)C(=O)c2ccccc2C1=O,6.18188245
1217,AYUPOA,C16 H13 Cl1 N2 S1,Clc1ccccc1C=NC1=C(C#N)C2=C(CCCC2)S1,5.79412022
1218,AYUPUH,C23 H21 N1 O1,CN(C)c1ccc(C=Cc2ccc(cc2)C(=O)c2ccccc2)cc1,5.35846595
1219,AYURAO,C31 H25 N1 O6,COc1ccc(Oc2ccc(cc2)C2=C(C(=O)N(C)C2=O)c2ccc(Oc3ccc(OC)cc3)cc2)cc1,5.41098392
1220,AYUTAQ,C25 H21 Cl1 N4 O1 S1,CC1=NN(C(CC(=O)c2ccccc2)c2ccccc2)C(=S)N1N=Cc1ccccc1Cl,5.85670641
1221,AYUTIY,C32 H23 F1 N2 O3,CN1CC(c2cncc(c2)c2ccc(F)cc2)C2(Cc3ccccc3C2=O)C21C(=O)c1ccccc1C2=O,6.05725431
1222,AYUTOE,C27 H21 N1 O3,CN1CC(c2ccccc2)C2(Cc3ccccc3C2=O)C21C(=O)c1ccccc1C2=O,6.002287320000001
1223,AYUVOG,C18 H16 N2 O4,OC(=O)C(CC1=CNc2ccccc12)[NH+]=Cc1cccc(O)c1[O-],5.33832952
1224,AYUYAV,C18 H18 O3 S1,COc1ccc(cc1OC)C(=O)C=Cc1ccc(SC)cc1,5.77480013
1225,AYUYEZ,C27 H20 Cl1 N1 O3,CN1CC(c2ccc(Cl)cc2)C2(Cc3ccccc3C2=O)C21C(=O)c1ccccc1C2=O,6.09779927
1226,AYUYOJ,C17 H17 N1 O4,COc1cc(C=CC(=O)c2ccccn2)cc(OC)c1OC,5.6387432099999995
1227,AYUZIE,C24 H21 N3 O1 S1,COc1ccc(cc1)C1CC(=NN1C1=Nc2ccc(C)cc2S1)c1ccccc1,5.7690857499999995
1228,AZADIQ,C33 H30 N4 O3,CC(C)(C)OC(=O)N1C(=C(C#N)C2=C(CCc3ccccc23)C21C(=O)N(Cc1ccccc1)c1ccccc21)N,6.012627640000001
1229,AZADOV,C8 H6 N2 O1 S2,O=C1NC(=S)NC1=CC1=CC=CS1,5.44037222
1230,AZADOW,C31 H27 Br1 N4 O3,CC(C)(C)OC(=O)NC1(CC(c2ccc(Br)cc2)=C(C#N)C#N)C(=O)N(Cc2ccccc2)c2ccccc12,5.94677609
1231,AZADUB,C24 H23 N5 O1 S1,CC1CCCc2c1nc(NC(=S)NC(=O)c1ccccc1)c(C#N)c2C1=CC=CN1C,6.055621629999999
1232,AZAFUE,C21 H22 N2 O3,CC(C)C(N1C(=O)C(=O)c2ccccc12)C(=O)Nc1c(C)cccc1C,6.071404230000001
1233,AZAJAO,C26 H20 O3,CC(=O)c1cc2c(C(=O)C(=C2c2ccccc2)c2ccccc2)c(C(C)=O)c1C,5.393840749999999
1234,AZAMOE,C20 H14 N2 O1,O=C1NC2=C(CCc3ccccc23)C(=C1C#N)c1ccccc1,5.54268702
1235,AZASER10,C5 H7 N3 O4,[NH3+]C(COC(=O)C=[N+]=[N-])C(=O)[O-],5.84037958
1236,AZAWOP,C48 H30 O6,COC(=O)c1ccc(cc1)c1ccc2C#Cc3cc(ccc3C#Cc3cc(ccc3C#Cc2c1)c1ccc(cc1)C(=O)OC)c1ccc(cc1)C(=O)OC,5.1454008
1237,AZBENC,C12 H10 N2,c1ccc(cc1)N=Nc1ccccc1,6.15494319
1238,AZBNBT,C12 H8 Br2 N2,Brc1ccc(cc1)N=Nc1ccc(Br)cc1,5.720921590000001
1239,AZBTZI,C42 H30 N4 O1 S1,O=C1C(=C(c2ccccc2)C2(SC(=NC12c1ccccc1)[N-][N+](=Nc1ccccc1)c1ccccc1)c1ccccc1)c1ccccc1,5.88772739
1240,AZCFOM01,C2 H4 Cl2 N6,NC(=NCl)N=NC(N)=NCl,6.23766579
1241,AZDCAR02,C2 H4 N4 O2,NC(=O)N=NC(N)=O,6.80692797
1242,AZEDIT,C22 H20 O5,COc1ccc(cc1)C(C)=C1C(=O)OC(=O)C1=C(C)c1ccc(OC)cc1,5.874121690000001
1243,AZEJAS,C10 H15 N3 O1,CN(C)c1ccc(cc1)C(N)=[N+](C)[O-],6.055349509999999
1244,AZESAB,C22 H21 N1 O5,OC(=O)c1ccc2C(=O)OC(c3cc4CCCCN5CCCc(c3O)c45)c2c1,5.34703716
1245,AZESAZ,C16 H20 N2 S2,S=C(N1CCCC1)c1cccc(c1)C(=S)N1CCCC1,6.1984814
1246,AZETAA,C16 H20 N4 O2 S1,CN1N=C(SC1=NC1CCCC(O)C1)c1ccc(cc1)C(N)=O,6.08473781
1247,AZETOQ,C22 H40 N4,CCCCNC1=CC(=NCCCC)C(=CC1=NCCCC)NCCCC,5.64418549
1248,AZEXOU,C23 H21 N1 O1,C=CCC(N(c1ccccc1)c1ccccc1)C(=O)c1ccccc1,6.01453244
1249,AZFOXM,C2 H4 N4 O2,ON=CN=NC=NO,6.62896551
1250,AZIGIB,C42 H41 F2 N1 O2,Fc1ccc2C=C3c4cc(F)ccc4C(OC3(C(C(=O)c3ccccc3)c2c1)c1ccccc1)N(C1CCCCC1)C1CCCCC1,5.972354789999999
1251,AZIGOH,C36 H35 N1 O2,CC(C)N(C(C)C)C1OC2(C(C(=O)c3ccccc3)c3ccccc3C=C2c2ccccc12)c1ccccc1,6.03004293
1252,AZISUZ,C23 H27 N1 O5 S1,CCSC1=CC=C2C(=CC1=O)C(CCc1cc(OC)c(OC)c(OC)c21)NC(C)=O,5.5103054700000005
1253,AZITEK,C17 H15 F1 O3,COc1ccc(cc1OC)C(=O)C=Cc1ccccc1F,5.9606539000000005
1254,AZITUA,C17 H14 Cl2 O3,COc1ccc(cc1OC)C(=O)C=Cc1c(Cl)cccc1Cl,5.87357747
1255,AZIWIR,C47 H50 O1,CC(C)(C)c1ccc(cc1)C1=C2c3cc(cc4ccc5cc(cc(c5c34)C2=C(C1=O)c1ccc(cc1)C(C)(C)C)C(C)(C)C)C(C)(C)C,4.702671560000001
1256,AZLENE,C10 H8,C1=CC=C2C=CC=C2C=C1,5.25424634
1257,AZLNPR,C16 H16 O4,OC(=O)CCc1cc(CCC(O)=O)c2cccccc12,5.03982062
1258,AZMCTI,C19 H16 N4 O4 S1,COC(=O)C1=C(N=C(S1)[N-][N+](=Nc1ccccc1)c1ccccc1)C(=O)OC,5.42377327
1259,AZONEI,C17 H12 Cl1 N1 O2,Clc1ccc(cc1)C1=CC(=CC(=O)O1)Nc1ccccc1,6.10133675
1260,AZOQOW,C11 H10 Br1 N5 O1 S1,CC1=NN(C(N)=S)C(=O)C1=NNc1ccc(Br)cc1,4.86947736
1261,AZOQUC,C13 H16 N2 O4,CCOC(=O)C(=NNc1ccccc1OC)C(C)=O,5.84582185
1262,AZOSUE,C24 H22 N4 O2 S2,Cc1ccc(cc1)C(=O)NC(=S)Nc1ccccc1NC(=S)NC(=O)c1ccc(C)cc1,6.12201741
1263,AZOXIX,C27 H25 N1 O1,O=C1C(CN(CCc2ccccc2)CC1=Cc1ccccc1)=Cc1ccccc1,6.18405937
1264,AZOYEU,C17 H11 N5 S2,C1SC2=NN=C(N2N=C1c1ccccc1)C1=Nc2ccccc2S1,5.98323934
1265,AZOYIY,C28 H32,CCc1ccc(C(C)C)c2cc3cc4c(CC)ccc(C(C)C)c4cc3cc12,4.61559514
1266,AZOYUK,C18 H16 Br1 N3 O4 S1,CN1C(=C(O)c2ccccc2S1(=O)=O)C(=O)NN=C(C)c1ccc(Br)cc1,5.698608259999999
1267,AZPACN,C12 H8 N2,C1=CC2=CC=C3C=CC4=CC=C1N2N34,4.43409519
1268,AZPCYM,C20 H26 N2,CC(C)c1ccc(C)c(c1)N=Nc1cc(ccc1C)C(C)C,5.96364715
1269,AZPHEN10,C16 H18 N2 O2,CCOc1ccc(cc1)N=Nc1ccc(OCC)cc1,5.87575438
1270,AZPYRO,C10 H8 N4 O2,[O-][n+]1ccc(cc1)N=Nc1cc[n+]([O-])cc1,4.91083866
1271,AZSTBE,C20 H14 N2,c1ccc2c(c1)cncc2C=Cc1cncc2ccccc12,5.89453023
1272,AZUBIH,C19 H16 N2 O1,O=C(NCc1ccccc1)C(=CC=Cc1ccccc1)C#N,5.89752348
1273,AZUDEF,C18 H21 N3 O2,CCN(CC)c1ccc(C=NNC(=O)c2ccccc2)c(O)c1,6.01126707
1274,AZUFUX,C21 H17 Br1 Cl1 N1 O1,Clc1ccc(cc1)C(CC(=O)c1ccccc1)Nc1ccc(Br)cc1,5.9448713
1275,AZUHAG,C33 H29 B1 F10 I1 P1,Cc1cc(C)c(c(C)c1)[P+](C)(CC[B-](I)(c1c(F)c(F)c(F)c(F)c1F)c1c(F)c(F)c(F)c(F)c1F)c1c(C)cc(C)cc1C,5.61561354
1277,AZUHUZ,C13 H9 Cl1 N2,CC(C=Cc1ccccc1Cl)=C(C#N)C#N,5.71765623
1278,AZUJOV,C32 H24 N6 O2,Nc1ccc(cc1)N1c2cc3N=C(N(c4ccc(N)cc4)c3cc2N=C1c1ccccc1O)c1ccccc1O,5.79792981
1279,AZUJUB,C15 H16 N6 O2 S1,CCCC1=NNC(=S)N1N=CC1=C([O-])ON=[N+]1c1ccc(C)cc1,5.61044337
1280,AZUKAI01,C18 H18 N2 O4,CCOC(=O)c1ccc(cc1)N=Nc1ccc(cc1)C(=O)OCC,6.031675609999999
1281,AZULOP,C24 H20,C1CC2=C3C=CC=CC=C3C(=C2)CCC2=CC1=C1C=CC=CC=C21,4.82349011
1282,AZUMIS,C17 H15 N3 O1 S1,CC(=NNC(=O)Nc1ccccc1)C1=Cc2ccccc2S1,6.2515436
1283,AZUNEP,C22 H26 N4 O2,CCN(CC)c1ccc(C=NC2=C(C)N(C)N(C2=O)c2ccccc2)c(O)c1,5.90106096
1284,AZURET,C12 H13 N5 O2 S1,COc1ccccc1NN=C1C(=NN(C(N)=S)C1=O)C,4.78022401
1285,AZUROD,C19 H16 N2 O3,COc1ccccc1C(=O)NN=Cc1c(O)ccc2ccccc12,6.05235626
1286,AZUTAR,C30 H24 N4 O2 S1,Oc1ccccc1C=NN1C(=S)N(N=C1c1ccccc1)C(CC(=O)c1ccccc1)c1ccccc1,5.72445907
1287,AZUTIZ,C23 H20 N4 O2 S1,CC1=NN(C(CC(=O)c2ccccc2)c2ccccc2)C(=S)N1N=CC1=CC=CO1,5.913033970000001
1288,AZUWIC,C11 H10 Cl1 N5 O1 S1,CC1=NN(C(N)=S)C(=O)C1=NNc1ccc(Cl)cc1,4.87709654
1289,AZUWUO,C18 H13 Br1 N4 O3 S3,Brc1cncc(c1)C1=NN=C(O1)C1=C(C=CS1)S(=O)(=O)N1CCC2=C(C1)C=CS2,6.148140339999999
1290,AZUYEZ,C16 H16 N2 O4,O=C1C=CC2=NNc3ccccc3OCCOCCOC2=C1,5.12199901
1291,AZUYID,C20 H24 N2 O4,CC(C)(C)c1cc(O)c2OCCOCCOc3ccccc3N=Nc2c1,6.17725652
1292,AZUZEA,C16 H11 Cl2 N1 S1,CC1=NC(=Cc2ccc(Cl)c(Cl)c2)c2ccccc2S1,5.71384663
1293,BABBEL,C18 H16 N2,CN1c2ccccc2c2c(C)c3cnccc3c(C)c12,5.83221616
1294,BABCAL,C14 H10 O3,OC1=CC=C(C(=O)C=C1)C(=O)c1ccccc1,5.96718463
1295,BABCEP,C15 H12 O3,Cc1ccc(cc1)C(=O)C1=CC=C(O)C=CC1=O,6.045281300000001
1297,BABCOZ,C20 H14 O2,O=C1C=CC(=CC=C1C(=O)c1ccccc1)c1ccccc1,5.83765844
1298,BABCUF,C19 H14 O3,CC1=CC=C(C(=O)c2ccccc2)C(=O)C(=C1)C1=CC=CO1,5.44254912
1299,BABDAM,C18 H12 O3,OC1=C(C(=O)c2ccccc2)c2ccccc2C(=O)C=C1,5.901877300000001
1300,BABFOD,C39 H34 N3 O1 P1,O=C(Nc1ccccc1N=P(c1ccccc1)(c1ccccc1)c1ccccc1)N(Cc1ccccc1)Cc1ccccc1,5.6303076800000005
1301,BABHIV10,C18 H14 O5 S1,COC(=O)[C-]([S+]1c2ccccc2C(=O)c2ccccc12)C(=O)OC,5.73371094
1302,BABKIY,C10 H10 N2 O1,[O-][n+]1ccccc1C=C1CCN=C1,5.85344104
1303,BABSUT,C14 H13 N1 O2,COc1ccc(cc1)C=[N+]([O-])c1ccccc1,5.94595975
1304,BACBEN,C21 H14 Cl1 N1 O3,Clc1ccc2C(=O)C(=C3C=CC=CN3c2c1)C(=O)OCc1ccccc1,5.6207837
1305,BACCOA,C25 H22 Br1 N3 O1,CN(CC(C(=O)C1=NC=CN1c1ccccc1)c1ccc(Br)cc1)c1ccccc1,5.72228216
1306,BACCUH,C16 H10 N2 O1 S1,O=CC1=C(N2C(=Nc3ccccc23)S1)c1ccccc1,5.96174235
1307,BACDAO,C17 H10 F2 N2 O2 S1,FC(F)Oc1ccc2N=C3SC(=C(N3c2c1)c1ccccc1)C=O,5.90595901
1308,BACDOC,C16 H11 N3 O2 S1,COc1ccc2N=C3SC(=C(N3c2n1)c1ccccc1)C=O,5.93670787
1309,BACLAS,C14 H16 N4 O4,CC(=O)C(C(C)=O)=C(N)c1nc(C)c(C(C)=O)c(n1)C(N)=O,5.798201929999999
1311,BACMAX,C18 H14 Cl1 N3,CN(Cc1ccc2ccccc2c1)C(=CC=C(Cl)C#N)C#N,5.77697704
1312,BACTAD,C41 H32 P4,c1ccc(cc1)P(c1ccccc1)C1=CC2=P([P-][P+](c3ccccc3)(c3ccccc3)C2=C1)(c1ccccc1)c1ccccc1,5.56663304
1313,BACTIL,C41 H32 P4 S1,S=P(c1ccccc1)(c1ccccc1)C1=CC2=P([P-][P+](c3ccccc3)(c3ccccc3)C2=C1)(c1ccccc1)c1ccccc1,5.69615924
1314,BACVAF,C34 H25 O4 P1 S3,COc1cc(OC)cc(c1)C1=C2C3=CSC=C3C3=CSc4c5c(OC)cc(OC)cc5c(c2c34)P1(=S)c1ccccc1,5.29996146
1315,BACVIK,C30 H36 O4,CC(C)=CCC1=CC(=C(O)C=Cc2ccc(O)cc2)C(=O)C(CC=C(C)C)(CC=C(C)C)C1=O,4.99165647
1316,BACVUA,C20 H20 N2 O2 S4,CCCN1C(=S)SC(=Cc2ccc(cc2)C=C2SC(=S)N(CCC)C2=O)C1=O,4.84199385
1317,BACWAH,C26 H16 N2 O2 S4,O=C1N(C(=S)SC1=Cc1ccc(cc1)C=C1SC(=S)N(C1=O)c1ccccc1)c1ccccc1,4.98811899
1318,BACWEL,C18 H10 N2 O2 S4,O=C1N(C(=S)SC1=C1SC(=S)N(C1=O)c1ccccc1)c1ccccc1,4.81750361
1319,BACWIP,C10 H10 N2 O2 S4,CCCCN1C(=O)C(SC1=S)=C1SC(=S)NC1=O,5.25669536
1320,BACWUB,C11 H12 N2 O2 S4,CCCCN1C(=O)C(SC1=S)=C1SC(=S)N(C)C1=O,4.968526799999999
1321,BACXAI,C11 H12 N2 O2 S4,CCCN1C(=O)C(SC1=S)=C1SC(=S)N(CC)C1=O,4.898865649999999
1322,BACXOS01,C31 H24,C(Cc1c2ccccc2cc2ccccc12)Cc1c2ccccc2cc2ccccc12,5.32526805
1323,BADDES,C22 H28 N6 S2,CCN(CC)C(=S)N=C(Nc1ccccc1C(C)=NNC(=S)NC)c1ccccc1,5.57343589
1324,BADKIC,C14 H11 N1 O4,O=C1N(C2CC3OOC2C=C3)C(=O)c2ccccc12,6.736722599999999
1325,BADKUP,C14 H20 Cl1 N3,CC(C)N(N=NC(Cl)=Cc1ccccc1)C(C)C,5.89262543
1326,BADLAW,C16 H29 N3 O1,CCCCC1=C(N=NN(C(C)C)C(C)C)C(C)(C)C1=O,6.23412832
1327,BADLID,C44 H26 F6,FC(F)(F)c1ccc(cc1)C1C(c2ccc(cc2)C(F)(F)F)C(C1=C1c2ccccc2c2ccccc12)=C1c2ccccc2c2ccccc12,5.00335737
1328,BADLIE,C29 H32 N4 O6,COC(=O)C1(CC(N2C(=O)c3ccccc3C2=O)C(=C1N=NN(C(C)C)C(C)C)c1ccccc1)C(=O)OC,5.0313851
1329,BADMOK,C29 H20,c1ccc(cc1)C#CC1=C(C(c2ccccc2)c2ccccc12)c1ccccc1,5.60255207
1330,BADMUO,C9 H13 N1 S2,S=C1CC2CCCCC2C(=S)N1,6.05126781
1331,BADNEZ,C11 H17 N1 S2,CN1C(=S)C2CCC(C)(C1=S)C2(C)C,5.925006980000001
1332,BADNOJ,C10 H13 N1 S2,CC12C3CCC(C3)C1C(=S)NC2=S,6.20991018
1333,BADQEF,C11 H13 N1 O1 S1,CC1(C)COC(=[NH+]1)c1ccccc1[S-],5.05587534
1334,BADSEF,C18 H10 N2 S5,N1C2=C(C3=C(SSSS2)C2=C(Nc4ccccc24)S3)c2ccccc12,6.14569131
1335,BADSEI,C15 H8 F6 N2,Nc1ccc2cc3c(cc2c1)nc(cc3C(F)(F)F)C(F)(F)F,4.96553355
1336,BADSIJ,C29 H34 N2 O1,O=C1C(=CNC2CCCCC2)N(C2CCCCC2)C(=C1c1ccccc1)c1ccccc1,5.61806255
1337,BADSIM,C15 H8 F6 N2,Nc1ccc2ccc3nc(cc(c3c2c1)C(F)(F)F)C(F)(F)F,5.48282197
1338,BADSOS,C21 H12 F6 N2,FC(F)(F)c1cc(c2c(ccc3ccc(Nc4ccccc4)cc23)n1)C(F)(F)F,5.30594798
1339,BADSUY,C27 H16 F6 N2,FC(F)(F)c1cc(c2c(ccc3ccc(cc23)N(c2ccccc2)c2ccccc2)n1)C(F)(F)F,5.10458372
1340,BADTAF,C21 H12 F6 N2,FC(F)(F)c1cc(c2cc3ccc(Nc4ccccc4)cc3cc2n1)C(F)(F)F,4.90838963
1341,BADTEJ,C27 H16 F6 N2,FC(F)(F)c1cc(c2cc3ccc(cc3cc2n1)N(c1ccccc1)c1ccccc1)C(F)(F)F,4.674643830000001
1342,BADTOR,C39 H36 N1 O2 P1,CC(C)C(COP(=O)(c1ccccc1)c1ccccc1)N1Cc2ccc3ccccc3c2c2c(C1)ccc1ccccc21,6.28065978
1343,BAETET,C22 H27 Br1 O3,COc1ccc2C3CCC4(C)C(CCC4C3(C)C=Cc2c1)OC(=O)CBr,5.85969966
1344,BAFBAL,C19 H19 N1 O2,COc1ccc(C=C2CCN=C2c2ccccc2)cc1OC,5.981606660000001
1345,BAFCIX,C24 H20 N4 O3,COC(=O)CN1C(=NC(=Cc2cc(ccc2c2ccncc2)c2ccncc2)C1=O)C,5.69343809
1346,BAFFAQ,C18 H16 N2 S2,N=S(c1ccccc1)c1ccc(cc1)S(=N)c1ccccc1,6.151677820000001
1347,BAFHUO,C23 H19 Cl1 N4,CN(C)c1ccc(cc1)c1ccnc(c1)c1cccc(n1)c1cc(Cl)ccn1,5.7426907
1348,BAFJAW,C30 H23 N5,CN(C)c1ccc(cc1)c1ccnc(c1)c1cccc(n1)c1cc(ccn1)c1ccc(cc1)C#N,5.25805594
1349,BAFPOO,C28 H27 Br1 N2 O7,COC(=O)C1Cc2ccc(Oc3cc(CC(NC(=O)OCc4ccccc4)C(=O)N1)cc(Br)c3OC)cc2,6.48583362
1350,BAFSOR,C19 H24 N2 O7,COC(=O)CC(=[N+]1[N-]C(=O)CC1C(OCc1ccccc1)C(C)O)C(=O)OC,5.98160666
1351,BAFXEL,C30 H22 O12,COC1=C(C(=O)c2c(O)c3C(=O)OC(C)Cc3cc2C1=O)C1=C(OC)C(=O)c2cc3CC(C)OC(=O)c3c(O)c2C1=O,5.8172499
1352,BAFXEP,C34 H26 O2,COc1ccc(cc1)C=CC1=C2c3ccccc3C(=C2c2ccccc12)C=Cc1ccc(OC)cc1,4.079530849999999
1353,BAGDES,C17 H20 N2 S1,CSN=C1C(=CC(C=C1C)=Nc1c(C)cccc1C)C,5.217510969999999
1354,BAGSUZ,C39 H30 P2 S2,CP(=S)(c1ccccc1)c1ccc2ccccc2c1c1c2ccccc2ccc1P(=S)(c1ccccc1)c1ccccc1,5.97208267
1355,BAGVIQ,C46 H29 N5,c1ccc(cc1)c1nc2ccccc2nc1c1cc(cc(c1)c1nc2ccccc2nc1c1ccccc1)N1c2ccccc2c2ccccc12,5.38350042
1356,BAGVUB,C21 H18 N2 O3 S1,COc1ccc2nc3c(NS(=O)(=O)c4ccc(C)cc4)cccc3cc2c1,5.51955734
1357,BAGWIS,C12 H9 F3 O3,COc1ccc2CC(=C(O)c2c1)C(=O)C(F)(F)F,5.89970039
1358,BAGXEO,C30 H25 N5 O1,CN(C)c1nc(nc(n1)c1ccc(cc1)N(c1ccccc1)c1ccccc1)c1ccc(C=O)cc1,5.24934829
1359,BAGXIT,C23 H22 N4,CN1C=C(c2ccccc12)c1nc2ccccc2nc1C=CN1CCCC1,5.488536369999999
1360,BAGYOY,C14 H12 O3,CC1(C)CC2=C(O1)c1ccccc1C(=O)C2=O,5.67085265
1361,BAHBER,C22 H20 O4 S2,CC1(C)Oc2ccccc2C2=C1SSC1(O2)C(=O)c2ccccc2OC1(C)C,5.93208194
1362,BAHCOE,C19 H25 Cl1 N2 O6,CCOC(=O)C1CC2(O)C(N1C(=O)OC(C)(C)C)[N+](C)([O-])c1c(Cl)cccc21,7.025435399999999
1363,BAHDIZ,C19 H15 N3,C1CC1c1cc2N3C=CC=CC3=Nc2c(n1)c1ccccc1,5.74323493
1364,BAHGIA,C26 H28 O4 S4,CCC1(CC)Oc2ccccc2C2=C1SSSSC1(O2)C(=O)c2ccccc2OC1(CC)CC,6.14324229
1365,BAHPIJ,C21 H27 N1 O8,COC(=O)CC(C(=O)OC)=C1CCC2=C1N1CCCC1C2(CC(=O)OC)C(=O)OC,6.27276848
1366,BAHQAC,C12 H13 Br1 N2 O3 S1,CN1CCC2=C(Br)C(=O)C3=C(C2=C1)S(=O)(=O)CCN3,4.88553207
1367,BAHWOZ,C17 H18 N2 O1 S2,COc1cccc(C=NNC(=S)SCc2ccccc2C)c1,6.18433148
1368,BAHYEP01,C40 H52 O4,CC(=CC=CC=C(C)C=CC=C(C)C=CC1=C(C)C(=O)C(O)CC1(C)C)C=CC=C(C)C=CC1=C(C)C(=O)C(O)CC1(C)C,4.04225125
1369,BAHYUE,C15 H13 N1 O2 S2,CCOC(=O)C1=CC2=C(C=CS2)[N-][S+]1c1ccccc1,5.3693505
1370,BAJKOM,C13 H20 O4 S1,CC1(C)C2CCC1(CS(=O)C=CC(O)=O)C(O)C2,6.27821075
1371,BAJKUS,C16 H21 N1 O4 S1,CC1(C)C2CCC1(CS(=O)c1ncccc1C(O)=O)C(O)C2,6.22487645
1372,BAJSIP,C30 H22 Cl2 N2 O2,ClC(=O)N(Cc1ccccc1)c1c2ccccc2c(N(Cc2ccccc2)C(Cl)=O)c2ccccc12,5.30431529
1373,BAKJEF,C27 H36 N2 O1 P2,Cc1cccc(C)c1N=C(P1P=C(N(C1=O)c1c(C)cccc1C)C(C)(C)C)C(C)(C)C,5.955211609999999
1374,BAKJIJ,C20 H14 N2 O1,Oc1ccccc1C=NN=C1c2ccccc2c2ccccc12,5.817249899999998
1375,BAKSAJ,C26 H18 Cl1 N3 S1,Clc1ccc(cc1)N1C=C(C=C(Sc2ccccc2)c2ccc3ccccc3c2)N=N1,5.78024242
1376,BALCAS,C32 H26 O2,CC(=O)OCC1c2ccccc2C(Cc2c3ccccc3cc3ccccc23)c2ccccc12,5.451800990000001
1377,BALCEW,C37 H28 O2,O=C(OCC1c2ccccc2C(Cc2c3ccccc3cc3ccccc23)c2ccccc12)c1ccccc1,5.44663083
1378,BALCUO,C30 H19 N3 S2,N1C(=C(c2ccccc2)C(=C1C1=Nc2ccccc2S1)c1ccccc1)C1=Nc2ccccc2S1,5.64200857
1379,BALCUP,C31 H23 N1 O4,COc1ccc2N(Cc3ccccc3)C(=O)C3(OC(=C(C3=O)c3ccccc3)c3ccccc3)c2c1,6.09507813
1380,BALFEA,C13 H13 N3 O1 S1,COc1cccc(NC(=S)Nc2ccccn2)c1,6.20201888
1381,BALFUQ,C14 H15 N3 O1 S1,COc1cccc(NC(=S)Nc2ccc(C)cn2)c1,6.09480602
1383,BALGUR02,C14 H13 N1 O3,COc1ccc([O-])c(C=[NH+]c2ccccc2O)c1,4.63818058
1384,BALHON,C22 H15 N1 O1,O=C(C=Cc1c2ccccc2cc2ccccc12)c1ccncc1,5.0177794
1385,BALJAC,C31 H19 N1 O3 S1,O=C1c2ccccc2S(=O)(=O)c2ccc(cc12)c1ccc2N(c3ccccc3)c3ccccc3c2c1,5.123087460000001
1386,BALJEG,C31 H21 N1 O3 S1,O=C1c2ccccc2S(=O)(=O)c2ccc(cc12)c1ccc(cc1)N(c1ccccc1)c1ccccc1,4.73151564
1387,BALJIK,C20 H15 N1 O1,Oc1ccc(Nc2cccc3ccccc23)c2ccccc12,4.91709728
1388,BALKEF,C14 H15 N3 S2,CSc1ccccc1NC(=S)Nc1ccc(C)cn1,6.16609985
1389,BALNEI,C36 H18 O1 S4,O(c1ccc(C#CC2=CC=CS2)c(c1)C#CC1=CC=CS1)c1ccc(C#CC2=CC=CS2)c(c1)C#CC1=CC=CS1,5.742690700000001
1390,BALNIN02,C3 H7 N1 O2,[NH3+]CCC(=O)[O-],5.82622966
1391,BALPOW,C17 H14 N2 O6 S2,Cc1ccc(cc1)S(=O)(=O)N1C=CC2=C1C(=O)C1=C(NCCS1(=O)=O)C2=O,5.585953130000001
1392,BALSAK,C31 H23 N1 O3,COc1cc(OC)c2c3N(C=C(C(=O)c13)c1ccccc1)C(=C2c1ccccc1)c1ccccc1,5.75656851
1393,BALSIS,C18 H12 N4 O1 S2,CC(=O)c1ccc(c2cnnc(n2)C2=CC=CS2)c(n1)C1=CC=CS1,5.96636829
1394,BALXOB,C36 H58 P2,CC(C)(C)c1cc(c(P=Pc2c(cc(cc2C(C)(C)C)C(C)(C)C)C(C)(C)C)c(c1)C(C)(C)C)C(C)(C)C,5.39846668
1395,BALYEU,C14 H8 N2 O1 S2,N#CC(SC1=Nc2ccccc2S1)=CC1=CC=CO1,5.92419064
1396,BALYIY,C22 H16 N2 O3 S1,CC(=O)C(SC1=Nc2ccccc2C(=O)N1c1ccccc1)=CC1=CC=CO1,5.77888185
1397,BAMBAU,C29 H22 N2,CN1c2ccccc2C(=C=C2c3ccccc3N(C)c3ccccc23)c2ccccc12,5.87765917
1398,BAMCAV,C42 H44 N4 O4,CCCCN1C(=O)c2ccc3c4c(cc5C(=O)N(CCCC)C(=O)c6ccc(c7c(cc(C1=O)c2c37)N1CCCCC1)c4c56)N1CCCCC1,3.7617018700000004
1399,BAMGAZ,C19 H24 N4 O2 S2,O=C1N(CCCCN2CCN(CC2)c2ccccn2)C(=O)C2=C1SCCS2,5.431936690000001
1400,BAMGED,C20 H25 N3 O3 S2,Oc1ccccc1N1CCN(CCCCN2C(=O)C3=C(SCCS3)C2=O)CC1,5.3396900899999995
1401,BAMGIH,C17 H21 N5 O2 S2,O=C1N(CCCN2CCN(CC2)c2ncccn2)C(=O)C2=C1SCCS2,5.79820192
1402,BAMLEJ,C36 H25 N5 O2,COc1ccccc1C1=CC(=C(N1)N=C1N=C(C=C1c1ccc(cc1)C#N)c1ccccc1OC)c1ccc(cc1)C#N,3.95517482
1403,BAMLIN,C36 H24 B1 F2 N5 O2,COc1ccccc1C1=CC(=C2N=C3[N+](=C(C=C3c3ccc(cc3)C#N)c3ccccc3OC)[B-](F)(F)N12)c1ccc(cc1)C#N,3.7513615499999995
1404,BAMROZ,C13 H14 B1 F3 N2,CC1=CC(=C2C=C3[N+](=C(C)C(=C3C)F)[B-](F)(F)N12)C,4.764985640000001
1405,BAMRUF,C14 H16 B1 F3 N2,CC1=CC(=C2N1[B-](F)(F)[N+]1=C(C)C(=C(C)C1=C2C)F)C,4.80716328
1406,BAMSAM,C15 H16 B1 F5 N2,CC1=CC(=C2N1[B-](F)(F)[N+]1=C(C)C(=C(C)C1=C2C)C(F)(F)F)C,4.90267525
1407,BAMSEQ,C15 H13 B1 F8 N2,CC1=C(C(=C2C=C3[N+](=C(C)C(=C3C)C(F)(F)F)[B-](F)(F)N12)C)C(F)(F)F,4.79301336
1408,BAMSIU,C14 H14 B1 F5 N2,CC1=CC(=C2C=C3[N+](=C(C)C(=C3C)C(F)(F)F)[B-](F)(F)N12)C,4.80607483
1409,BAMTER,C11 H10 B1 F3 N2,CC1=CC(=C2C=C3C=CC(=[N+]3[B-](F)(F)N12)F)C,4.64498343
1410,BAMWIV,C13 H13 N1 O1,CC(C)=CC=C1C(=O)Nc2ccccc12,5.573708
1411,BANAMP,C10 H9 Br1 N4 O2 S1,Nc1cccc(c1)S(=O)(=O)Nc1ncc(Br)cn1,6.0414717
1412,BANAQP10,C10 H6 Br1 N1 O2,NC1=C(Br)C(=O)C(=O)c2ccccc12,5.209891780000001
1413,BANBEZ,C20 H20 N2 O2,COc1ccccc1C=CC=NN=CC=Cc1ccccc1OC,5.347037159999999
1414,BANCOJ,C29 H19 N3,c1ccc(nc1)c1cc(cc(n1)c1ccccn1)c1c2ccccc2cc2ccccc12,5.44717506
1415,BANCUP,C31 H19 N3,c1ccc(nc1)c1cc(cc(n1)c1ccccn1)c1ccc2ccc3cccc4ccc1c2c34,5.631668250000001
1416,BANFAY,C9 H5 N1 O3,ON=C1C(=O)c2ccccc2C1=O,6.71250446
1417,BANFED,C20 H10 N2 S2,S1c2ccccc2c2c1c1Sc3ccccc3c1c1nccnc21,5.68772371
1418,BANGUV,C15 H9 Cl1 N4 O1,Clc1ccc(NN=C(C#N)C2=Nc3ccccc3O2)cc1,5.63602207