,ID,formula,smiles,HOMO_LUMO_gap
7485,FECXOB,C21 H15 N3 O1 S1,Cc1ccc(cc1)C1=CC2=C(C#N)C3=C(SC=C3)C(=O)C2=C2NCCN12,5.396834
7486,FECYIV,C15 H20 N6 O4,COC(=O)C1=NNC(=NC1(C=NN1CCCCCC1)C(=O)OC)C#N,6.11249343
7487,FECZOE01,C22 H12 Cl2,Clc1c2cc3ccccc3cc2c(Cl)c2cc3ccccc3cc12,3.6993878
7488,FEDBIC,C17 H22 B1 I1 N2 O3,C[N+]1=C(O[B-]2(OC(C)(C)C(C)(C)O2)C1CC#N)c1ccc(I)cc1,6.72393324
7489,FEDGOK,C10 H8 N4,C1=CN2N=C3C=CC=CN3N=C2C=C1,4.7900201099999995
7490,FEDKEF,C33 H29 N1,CCCN(Cc1c2ccccc2cc2ccccc12)Cc1c2ccccc2cc2ccccc12,5.25288577
7491,FEDKIJ,C8 H6 N2 S3,Nc1ccc2C(=S)SC(=S)Nc2c1,5.6877237
7492,FEDMEH,C25 H26 O5,CC(C)=CCCC(C)=CCOc1cc(O)c2C(=O)c3c(O)cc(C)cc3C(=O)c2c1,5.87303323
7493,FEDPAF,C20 H20 F12 N1 O2 P1,CC(C)(C)C1=CN2C=C(OP32(O1)C(=C(C(=C3C(F)(F)F)C(F)(F)F)C(F)(F)F)C(F)(F)F)C(C)(C)C,5.47629124
7494,FEDPEK,C34 H16 N4 O4,O=C1N(c2cccnc2)C(=O)c2ccc3c4ccc5C(=O)N(c6cccnc6)C(=O)c6ccc(c7ccc1c2c37)c4c56,4.25640485
7495,FEDPIO,C34 H16 N4 O4,O=C1N(c2ccccn2)C(=O)c2ccc3c4ccc5C(=O)N(c6ccccn6)C(=O)c6ccc(c7ccc1c2c37)c4c56,4.17014476
7496,FEDPOU,C34 H16 N4 O4,O=C1N(c2ccncc2)C(=O)c2ccc3c4ccc5C(=O)N(c6ccncc6)C(=O)c6ccc(c7ccc1c2c37)c4c56,4.13912378
7497,FEDQAH,C32 H20 N4,N#CC(=C(C#N)C1=C(C=C2C=CC=CN12)c1ccccc1)C1=C(C=C2C=CC=CN12)c1ccccc1,4.55137626
7498,FEDQUB,C20 H19 N3 O3,CC1=NN(C(=O)C1=C(NCCC(O)=O)c1ccccc1)c1ccccc1,5.99793349
7499,FEDSIR,C13 H10 Br2 O2,CCOC(=O)C1=CC=C2C(=CC(=C2C=C1)Br)Br,4.53668212
7500,FEDTOY,C20 H18 O4,CC12CCC3C1C=C1C(=O)c4ccccc4C(=O)C1(O2)C3(C)C=O,6.73264089
7501,FEDTUE,C18 H16 N2 O1 S1,O=C1N(CCc2ccccc2)C(=S)NC1=Cc1ccccc1,5.78622892
7502,FEDWAP,C25 H18 N2 O3,O=C(Oc1ccccc1C(=O)Nc1cccc2cccnc12)C=Cc1ccccc1,5.78323567
7503,FEFJUX,C18 H21 N1 O5,COc1ccc2CC3[N+](C)([O-])CCC45C(Oc1c24)C(=O)CCC35O,6.87250741
7504,FEFJUY,C26 H29 N3 O2,CCCCCCCCN1C(=NC(=Cc2ccc(cc2)C2=Nc3ccccc3O2)C1=O)C,5.362819760000001
7505,FEFKAF,C34 H45 N3 O2,CCCCCCCCCCCCCCCCN1C(=NC(=Cc2ccc(cc2)C2=Nc3ccccc3O2)C1=O)C,5.46377401
7506,FEFLEI,C13 H10 N2 O6,CC(=O)Nc1[n+](cccc1OC(C)=O)C1=C([O-])C(=O)C1=O,5.247987719999999
7507,FEFLEK,C18 H15 N3 O2,CCC1=CN2C=C(C=C2C=C1)C1=[N+]([N-]OC1=O)c1ccccc1,5.72881289
7508,FEFLIO,C23 H21 N3 O5,CCOC(=O)C1=C2N(C(=CC=C2CC)C)C(=C1)C(=O)C1=[N+]([N-]OC1=O)c1ccccc1,5.38132351
7509,FEFLUZ,C40 H16 O4,O1c2c3ccccc3c3Oc4c5ccccc5c5Oc6c7ccccc7c7Oc8c9ccccc9c1c1c2c3c4c5c6c7c81,5.61806256
7510,FEFNOW,C15 H25 B1 N2 S3,CCS[B-](SCC)(SCC)C1=[N+](C)c2ccccc2N1C,5.86568616
7511,FEFNUC,C27 H39 B1 N2 S3,CCS[B-](SCC)(SCC)C1=[N+](C=CN1c1c(C)cc(C)cc1C)c1c(C)cc(C)cc1C,6.39385915
7512,FEFPEO,C14 H20 B1 N3 S2,CCS[B-](SCC)(C#N)C1=[N+](C)c2ccccc2N1C,5.951129910000001
7513,FEFPOV,C16 H15 N3 O1,C(CC1=NOC(=N1)c1ccccc1)Nc1ccccc1,5.75275891
7514,FEFPUB,C17 H17 N3 O1,C(CNc1ccccc1)CC1=NOC(=N1)c1ccccc1,5.89697925
7515,FEFQEN,C21 H22 N2,CCC(=CC=Cc1ccc(cc1)N(C)C)c1ccc(cc1)C#N,4.79274125
7516,FEFREP03,C14 H4 N2 O2 S2,O=C1C2=C(SC(=C(S2)C#N)C#N)C(=O)c2ccccc12,5.384588880000001
7517,FEFXUL,C21 H18 N2 O1 S2,O=C(NC(=S)Nc1ccccc1SCc1ccccc1)c1ccccc1,5.945415519999999
7518,FEFYIY,C26 H24 O2,O=C1C2=C3CCc4ccc(CCC1=C(CCc1ccc(CC2)cc1)C3=O)cc4,5.732350370000001
7519,FEFZAT,C11 H20 N2 O3,CC(C)CC1[NH2+]C(C)(C)N(CC(=O)[O-])C1=O,5.31792098
7520,FEGBEZ,C28 H23 P1,C(c1ccccc1)P(c1ccccc1)(c1ccccc1)=C1C=Cc2ccccc12,4.87301483
7521,FEGDUR,C16 H9 N5 O6,O=C1NC(=O)C(C(=O)N1)=C1NC(c2ccccc12)=C1C(=O)NC(=O)NC1=O,4.928253939999999
7522,FEGKUY,C33 H36 O5,CC1CCC=C(C)CCC(OC(=O)C(c2ccccc2)=C2OC(=O)C(=C2O)c2ccccc2)C(C)(C)C=C1,5.56064653
7523,FEGSIW,C14 H12 N2 O2,O=C1C=CC(=O)N1CCC1=CNc2ccccc12,5.323091140000001
7524,FEGSOC,C14 H14 N2 O3,OC(=O)C=CC(=O)NCCC1=CNc2ccccc12,5.81044705
7525,FEGTOD,C34 H33 N1 S2,CC(C)(C)c1cc(cc(c1)C(C)(C)C)N1c2ccc(cc2c2cc(ccc12)C1=CC=CS1)C1=CC=CS1,5.66840362
7526,FEGTUJ,C32 H29 N1 S2,CCCCC(CC)CN1c2ccc(cc2c2cc(ccc12)C#CC1=CC=CS1)C#CC1=CC=CS1,5.69316598
7527,FEGVAO,C9 H13 N1 O5 S1,C[NH2+]CCc1ccc(O)c(OS(=O)(=O)[O-])c1,4.90104256
7528,FEGVET,C26 H20 N2 O2,COc1ccc(cc1)N=C1c2cccc3cccc(C1=Nc1ccc(OC)cc1)c23,5.44717506
7529,FEGYOF,C23 H22 O7,COc1cc2OCC3Oc4c5CC(Oc5ccc4C(=O)C3c2cc1OC)C1(C)CO1,6.073036920000001
7530,FEGZUN,C18 H12 O2,CC1=C2OC(=O)C(=C2c2ccccc12)c1ccccc1,5.26839626
7531,FEHBUP,C28 H22 N2 O3,CC(C=C1OC(=C(C)C1=O)c1ccccc1)=NN=C(C(=O)c1ccccc1)c1ccccc1,5.3005057
7532,FEHGAA,C40 H44 N2 O2,CCN(CC)C(=O)C(C)(C)c1ccc2cccc3C(=Cc1c23)C1=Cc2c(ccc3cccc1c23)C(C)(C)C(=O)N(CC)CC,4.7217195400000005
7533,FEHKAE,C26 H18 F2 N2,Fc1cc(F)c(c(c1)N=Nc1ccccc1)C(=Cc1ccccc1)c1ccccc1,5.55384369
7534,FEHLOV,C7 H16 N2 O4 S1,OCC[NH+]1CCN(CC1)CS(=O)(=O)[O-],5.941061690000001
7535,FEHMUA,C26 H8 Cl2 F10 N2,Fc1c(F)c(F)c(C=C(c2c(Cl)cc(Cl)cc2N=Nc2ccccc2)c2c(F)c(F)c(F)c(F)c2F)c(F)c1F,6.2101823
7536,FEHPEN,C44 H36 Cl2 N2 O4,COc1ccc(cc1)C=C(c1ccc(OC)cc1)c1c(Cl)cc(Cl)c(C(=Cc2ccc(OC)cc2)c2ccc(OC)cc2)c1N=Nc1ccccc1,5.83412095
7537,FEHPOZ,C26 H19 N3 O3,OC1(CCN2C(=O)c3ccccc3C2=O)c2ccccc2N=C1c1cccc2C=CNc12,5.617790439999999
7538,FEHQAM,C20 H10 O2,O=C1C(=O)c2c3ccccc3cc3cc4ccccc4c1c23,4.2414385900000005
7539,FEHQEQ,C16 H8 O2,O=C1C(=O)c2c3ccccc3cc3cccc1c23,5.18213616
7540,FEHRAM,C9 H6 N2 S4,N1C=CN=C1C1=CSC(S1)=C1SC=CS1,5.54568027
7541,FEJCAB,C34 H34 N2 O6 S2,CC(C)(C)c1ccc(cc1)S(=O)(=O)Nc1cccc2C(=O)c3c(NS(=O)(=O)c4ccc(cc4)C(C)(C)C)cccc3C(=O)c12,5.472753759999998
7542,FEJGIK,C18 H15 N3,Cc1nn2c(nc3ccccc3c2c2ccccc2)c1C,5.04662347
7543,FEJGUW,C28 H28 N4 O4 S2,COC(=O)C(=NN=C(C)C(C)=C1SC(S1)=C(C)C(C)=NN=C(C(=O)OC)c1ccccc1)c1ccccc1,4.96226818
7544,FEJHAD,C12 H12 N4 S4,Nc1ccc(N)c2SSc3c(N)ccc(N)c3SSc12,5.41887522
7545,FEJJEJ10,C12 H11 N1 O1,C=C=C1C(Cc2ccccc2)NC1=O,5.098869329999999
7546,FEJJOT,C16 H16 Br1 N3 O5,COC(=O)C(=O)C1(C(=NN(N=C1C)c1ccc(Br)cc1)C)C(=O)OC,5.8401074600000005
7547,FEJLIQ,C29 H24 F1 N1 O1,Fc1cc(ccc1N1CCCC1)C1(Oc2ccc3ccccc3c2C=C1)c1ccccc1,5.8782034
7548,FEJLOW,C29 H24 I1 N1 O1,Ic1cc(ccc1N1CCCC1)C1(Oc2ccc3ccccc3c2C=C1)c1ccccc1,6.02351219
7549,FEJLUC,C24 H24 N2 O4 S1,CC=C1CC(C(=O)N(CCC2=CNc3ccccc23)C1=O)S(=O)(=O)c1ccc(C)cc1,5.86486982
7550,FEJMUE,C12 H14 N4 S4,CSC(=S)NNC1N(N=Cc2ccccc12)C(=S)SC,5.65643061
7551,FEJNIR,C25 H22 N4 O1,Cc1ccc(cc1)N=C1N=C(N=C1N(C(C)=O)c1ccc(C)cc1)c1ccccc1,5.06621567
7552,FEJQAP,C28 H23 Br2 N3 S1,CSc1ccc(cc1)c1nc2C(CN(C)Cc2c(n1)c1ccc(Br)cc1)=Cc1ccc(Br)cc1,5.47819604
7553,FEJRUH,C40 H42 N4 S4,CN(C)c1ccc(cc1)C1=CC(=C(S1)c1ccc(cc1)N(C)C)SSC1=C(SC(=C1)c1ccc(cc1)N(C)C)c1ccc(cc1)N(C)C,5.56500035
7554,FEJSUK,C26 H21 N6 P1 S1,S=P1(c2ccccc2)C(=C2CCCCC2=C1c1cccc(c1)N=[N+]=[N-])c1cccc(c1)N=[N+]=[N-],5.573708
7555,FEJVAU,C20 H16 Br1 N1 O3,Brc1ccc2CC3(C4CCCN4c2c1)C(=O)Oc1ccccc1C3=O,5.382139840000002
7556,FEJXEZ,C16 H14 N2 O1 S1,CSc1ccc2ccc3cccc(NC(C)=O)c3c2n1,5.85044779
7557,FEJYIC,C7 H4 O2 S5,O=C1CSC2=C(SCC1=O)SC(=S)S2,6.17834497
7558,FEJZUR,C27 H24 N2 O4 S1,CCOC(=O)C1=C(C)NC(=CC(=O)c2ccccc2)N(C1c1ccccc1)C(=O)C1=CC=CS1,5.91711568
7559,FEKBAA,C27 H24 N2 O5,CCOC(=O)C1=C(C)NC(=CC(=O)c2ccccc2)N(C1c1ccccc1)C(=O)C1=CC=CO1,6.074125370000002
7560,FEKBEE,C28 H26 N2 O6,CCOC(=O)C1=C(C)NC(=CC(=O)c2ccccc2)N(C1c1ccccc1OC)C(=O)C1=CC=CO1,5.96419138
7561,FEKCEF,C33 H24 O4,COC(=O)C1(C(=O)OC)c2ccccc2C2=C(c3ccccc3)c3ccccc3C2=C1c1ccccc1,5.43710684
7562,FEKDAC,C20 H20 N2 O5,COC(=O)C1C(C(=O)OC)C(=NN1c1ccccc1)c1ccc(OC)cc1,5.651260440000001
7563,FEKFAF,C24 H24 N2 O4,COc1c2OCOc2cc2CCN(C)C(=Cc12)C(=O)C1=C(C)N(C)c2ccccc12,6.08392147
7564,FEKJUC,C21 H28 N3 O4 P1 S1,CCN(CC)c1nc(SC)nc2C(OC(c12)P(=O)(OC)OC)=Cc1ccc(C)cc1,5.9407895900000005
7565,FEKTAS,C22 H25 Br1,CC(C)(C)c1ccc2cc3ccc(cc3c(Br)c2c1)C(C)(C)C,5.437651069999999
7566,FEKTEU,C20 H20 O4,COc1cc(C)c2CC=C3C(=O)C(=C(O)C(=O)C3=Cc2c1)C(C)C,5.87901974
7567,FEKTEW,C28 H29 Br1,CC(C)(C)c1ccc2c(Br)c3ccc(cc3c(c3ccccc3)c2c1)C(C)(C)C,5.3698947299999995
7569,FEKTOG,C36 H38 Br1 N1,Cc1ccc(cc1)N(c1ccc(C)cc1)c1c2cc(ccc2c(Br)c2ccc(cc12)C(C)(C)C)C(C)(C)C,4.9715200500000005
7570,FEKTUM,C22 H26,CC(C)(C)c1ccc2cc3cc(ccc3cc2c1)C(C)(C)C,5.51982946
7571,FEKTUN,C19 H13 Br1 N2 O1,CN1C=C(C(=O)C(=Cc2ccccc2Br)C#N)c2ccccc12,5.62241638
7572,FEKVEY,C28 H30,CC(C)(C)c1ccc2cc3ccc(cc3c(c3ccccc3)c2c1)C(C)(C)C,5.5290813199999995
7574,FEKVOI,C36 H39 N1,Cc1ccc(cc1)N(c1ccc(C)cc1)c1c2cc(ccc2cc2ccc(cc12)C(C)(C)C)C(C)(C)C,5.092882830000001
7575,FEKYEC,C12 H11 N3 O1 S1,NC(=S)NN=Cc1c(O)ccc2ccccc12,5.47982873
7576,FEKYOM,C19 H20 N2 O4 S1,CCOC1=C(SC(=N1)c1ccccn1)c1cc(OC)c(OC)c(OC)c1,5.2602328400000005
7577,FELGAG,C35 H46 O2,CC(C)(C)c1cc(cc(c1O)C(C)(C)C)C(c1ccccc1)=C1C=C(C(=O)C(=C1)C(C)(C)C)C(C)(C)C,5.1511151900000005
7578,FELGIO,C35 H52 O2,CC(C)(C)c1cc(cc(c1O)C(C)(C)C)C(C1CCCCC1)=C1C=C(C(=O)C(=C1)C(C)(C)C)C(C)(C)C,5.6169741
7579,FELGOV,C39 H31 N3 O1,OCCC1NC2(c3ccccc3c3nc4ccccc4nc23)C2(C(c3ccccc3)C12c1ccccc1)c1ccccc1,6.18514782
7580,FELGUB,C36 H29 N3,C=CC1C2(C3CCCN3C3(c4ccccc4c4nc5ccccc5nc34)C12c1ccccc1)c1ccccc1,6.016437229999999
7581,FELHEL,C20 H14 N2 O2,OC1=C2C=CC=CN2C(=C1C(=O)c1ccccn1)c1ccccc1,5.3094854499999995
7582,FELHIP,C19 H13 N1 O2 S1,OC1=C2C=CC=CN2C(=C1C(=O)C1=CC=CS1)c1ccccc1,5.571803200000001
7583,FELHOV,C19 H13 N3 O2,OC1=C2C=CC=CN2C(=C1C(=O)c1ccccn1)c1ccccn1,5.26213764
7584,FELHOW,C50 H38 N4 O2,COc1cc(ccc1C=C(C#N)c1ccc(cc1)C(=Cc1ccc(cc1OC)N(c1ccccc1)c1ccccc1)C#N)N(c1ccccc1)c1ccccc1,4.78022401
7585,FELKEP,C39 H29 N3 O2,COC(=O)C1C2(C(NC3(c4ccccc4c4nc5ccccc5nc34)C12c1ccccc1)c1ccccc1)c1ccccc1,6.20664482
7586,FELKIT,C44 H31 N3 O1,COc1ccc(cc1)C1=NC2(c3ccccc3c3nc4ccccc4nc23)C2(C(c3ccccc3)C12c1ccccc1)c1ccccc1,5.93425886
7587,FELWIC,C22 H26 N6 O2,CC(=O)N1N=CN=C2C(=CC3C(C4C=CC3(C)C3=NC=NN(C(C)=O)C43C)C12C)C,6.21371978
7588,FELXEZ01,C42 H36 N2 O1,CN(C)c1ccc(cc1)C1(c2ccc(cc2)N(C)C)c2ccccc2c2ccccc2C21c1ccccc1Oc1ccccc21,6.04201594
7589,FELYED,C31 H27 N2 O2 P1,C1CC(CNc2ccccc2)N(C1)P1Oc2ccc3ccccc3c2c2c(O1)ccc1ccccc21,5.92092527
7590,FELYON,C37 H31 N2 O2 P1,C1CC(CNc2ccc(cc2)c2ccccc2)N(C1)P1Oc2ccc3ccccc3c2c2c(O1)ccc1ccccc21,5.76636461
7591,FELZOO,C18 H20 N2 O2,CCCCN1C(=O)c2cc3ccc(cc3cc2C1=O)N(C)C,5.7995624900000005
7592,FEMBUX,C25 H14 Br1 N3 O2,Brc1ccc2C(=O)N(C(=O)c3cccc1c23)c1ccccc1C1=Nc2ccccc2N1,5.66894785
7593,FEMCOP,C22 H16 O2,CC(=O)Oc1c2ccccc2c(c2ccccc2)c2ccccc12,5.477379699999999
7594,FEMHAG,C24 H18 O4,CC(=O)Oc1ccc(cc1)c1c2ccccc2c(OC(C)=O)c2ccccc12,5.4014599400000005
7595,FEMHOW,C23 H24 Cl1 N5 O3,CC(=NNC(=O)C1=C(C)c2ccccc2O1)C(=NNc1ccccc1Cl)N1CCOCC1,5.82867868
7596,FEMHUB,C12 H15 N1 O4 S1,CC(C)C1COC(=[NH+]1)c1ccccc1S(=O)(=O)[O-],6.24392441
7597,FEMJUD,C23 H21 N1 O4,CCOC(=O)C1=C(N(C)C(=O)C1=C(O)C=Cc1ccccc1)c1ccccc1,5.13778162
7598,FEMKAK,C17 H19 N1 O4,CCCC(O)=C1C(=O)NC(=C1C(=O)OCC)c1ccccc1,5.90078885
7599,FEMKEO,C20 H17 N1 O4,CCOC(=O)C1=C(NC(=O)C1=C(O)c1ccccc1)c1ccccc1,5.547040850000001
7600,FEMKIS,C24 H20 N2 O1,CN1C(=O)C(C=C1c1ccccc1)=C(Nc1ccccc1)c1ccccc1,5.0999577899999995
7601,FEMROG,C17 H9 Br2 N1,BrC1=CC=CC2=C(Br)C(=C(C#N)C2=C1)c1ccccc1,4.79791142
7602,FEMVIC,C6 H12 N2 O2 S2,OCCNC(=S)C(=S)NCCO,6.03412464
7603,FEMZII01,C15 H11 Cl1 N2 O2,Clc1ccc(cc1)C(=O)C(C=O)=NNc1ccccc1,5.98759316
7604,FENCIM,C36 H32 O12,COc1cc2C(=O)OC3(OC4(c5cc(OC)c(OC)cc5C(=O)c5cc(OC)c(OC)cc45)c4cc(OC)c(OC)cc34)c2cc1OC,6.10133676
7605,FENHOY,C23 H15 Cl1 O1,Clc1ccc(cc1)C=CC(=O)c1c2ccccc2cc2ccccc12,5.40363685
7606,FENHUE,C23 H15 Br1 O1,Brc1ccc(cc1)C=CC(=O)c1c2ccccc2cc2ccccc12,5.32309115
7607,FENKEO,C32 H36 O10,COc1c(OC)c2c(c(O)c1C(C)COC(=O)C13CCC(C)(C(=O)O1)C3(C)C)C(=O)C1=C3C(=C(C)C(=O)O1)CCC23C,5.91575511
7608,FENQIZ,C12 H14 N2 O2,Nc1cc(N)cc(C=CC(=O)OCC=C)c1,5.93942902
7610,FENYIG,C12 H16 N4 O4,CC(C)(C)OC(=O)C1CCCN2N1C(=O)C(=[N+]=[N-])C2=O,6.93073978
7611,FENZUU,C18 H26 N4 O6 S2,OCCN(CCO)C(=S)NC(=O)c1cccc(c1)C(=O)NC(=S)N(CCO)CCO,6.20746116
7612,FEPDEJ01,C27 H21 N5,CC1=NN(c2ccccc2)c2nc3N(N=C(C)c3c(c3ccccc3)c12)c1ccccc1,5.71466298
7613,FEPDUZ,C29 H26 N6,CN(C)c1ccc(cc1)c1c2C(=NN(c3ccccc3)c2nc2N(N=C(C)c12)c1ccccc1)C,5.87657072
7614,FEPKAP,C5 H4 N8 O2 S1,NC1=NO[N+](=C1C1=NN2N=NN=C2SC1)[O-],6.215624570000001
7615,FEPKOA,C16 H10 O7,CC(=O)c1c(O)cc(O)c2C(=O)c3c(O)cc(O)cc3C(=O)c12,6.03412463
7616,FEPMUL,C17 H14 O4,CCCOc1ccc(O)c2C(=O)c3ccccc3C(=O)c12,5.74160224
7617,FEPNAS,C19 H16 O5,CCCOc1ccc(OC(C)=O)c2C(=O)c3ccccc3C(=O)c12,5.94487129
7618,FEPPEX,C23 H19 Br2 N3,Brc1ccc(cc1)C1=CN2C=C(C=C(c3ccc(Br)cc3)C2=N1)N1CCCC1,5.80418843
7619,FEPPIB,C23 H19 Cl2 N3,Clc1ccc(cc1)C1=CN2C=C(C=C(c3ccc(Cl)cc3)C2=N1)N1CCCC1,5.8115355
7620,FEPRID,C22 H17 Cl1 N2 O3,Cc1ccc2OC3N4CCNC4=C(C=C3C(=O)c2c1)C(=O)c1ccc(Cl)cc1,5.803099980000001
7621,FEPTOJ,C25 H18 N4 O3,OC12CC3N(C1Nc1ccccc21)C(=O)c1ccccc1N1C(=O)c2ccccc2N=C31,6.07793496
7622,FEPWAY,C3 H6 N2 S2,CC(=[NH2+])NC(=S)[S-],5.264042440000001
7623,FEPWOO,C26 H21 N1 O5,CCCCCN=C1OC(=CC2=COc3ccccc3C2=O)C2=C1Oc1ccccc1C2=O,5.34567659
7624,FEPXIJ,C33 H31 Cl1 N2 O5,CCOC(=O)C1C(=CC(=Nc2c(C)cccc2C)C21C(=O)N(Cc1ccccc1)c1ccc(Cl)cc21)C(=O)OCC,6.07086
7625,FEPXOP,C26 H21 F1 N4 O3,CCOC(=O)C1=CC(=Nc2c(C)cccc2C)C(C#N)(C#N)C21C(=O)N(C)c1ccc(F)cc21,5.70704378
7626,FEPYOR,C23 H22 F1 N3,CCN(CCF)c1ccc(C=Cc2ccc(cc2)C(C)=C(C#N)C#N)cc1,4.8901580099999995
7627,FEPYUV,C28 H29 N1 O5,CCOC(=O)C1=C(N2CCOC32C(=C(c2ccccc2)C3(C)C1)C(=O)OCC)c1ccccc1,5.91085706
7628,FEPYUX,C26 H20 F1 N3,CN(CCF)c1ccc2cc(ccc2c1)C#Cc1ccc(cc1)C(C)=C(C#N)C#N,4.83927272
7629,FEPZEH,C9 H9 N1 Se1,NC(=[Se])C=Cc1ccccc1,5.01587461
7630,FEPZEI,C23 H20 F1 N3,CCN(CCF)c1ccc(cc1)C#Cc1ccc(cc1)C(C)=C(C#N)C#N,4.98675842
7631,FEPZIM,C21 H20 F1 N3,CCN(CCF)c1ccc(cc1)c1ccc(cc1)C(C)=C(C#N)C#N,5.064582980000001
7633,FEPZOS,C33 H26 F1 N3,CCN(CCF)c1ccc(cc1)C#Cc1ccc2cc(ccc2c1)c1ccc(cc1)C(C)=C(C#N)C#N,4.51981106
7634,FEPZUX,C23 H19 Cl1 O1 S1,Clc1ccc(cc1)C(=O)CC1CC(c2ccccc2)c2ccccc2S1,5.99167488
7635,FEPZUY,C27 H22 F1 N3,CCN(CCF)c1ccc(cc1)C#Cc1ccc2cc(ccc2c1)C(C)=C(C#N)C#N,4.97396907
7636,FEQBEK,C23 H20 N4 O2 S1,CCCN1C(SC23C(=O)c4ccccc4C12OC(=C3C#N)N)=Nc1ccc(C)cc1,5.946503969999999
7637,FEQDAI,C24 H24 N2 O6,COc1cc2OCCOc3cccc(c3)N=Nc3cccc(OCCOc1cc2OC)c3,5.358193829999999
7638,FEQDEM,C24 H24 N2 O4,Cc1cc2OCCOc3cccc(c3)N=Nc3cccc(OCCOc1cc2C)c3,5.702145740000001
7639,FEQDOV,C31 H25 N1 O1,Oc1ccccc1NCc1c(cc(cc1c1ccccc1)c1ccccc1)c1ccccc1,6.20854962
7640,FEQJET,C28 H20 F1 N5 O3,Cc1ccc(cc1Nc1nccc(n1)c1cccnc1)N1C=C(C=CC1=O)C(=O)c1ccc(F)cc1O,5.6996967099999996
7641,FEQLEV,C14 H15 N3 O1,O=Cc1ccc2ccc(nc2n1)N1CCCCC1,5.79738558
7642,FEQMEW,C13 H13 N3 O2,O=Cc1ccc2ccc(nc2n1)N1CCOCC1,5.77180688
7643,FEQMUM,C15 H16 Cl1 N3 O1,Cc1c(Cl)c2ccc(C=O)nc2nc1N1CCCCC1,6.10052042
7644,FEQNEX,C13 H13 N3 O1,O=Cc1ccc2ccc(nc2n1)N1CCCC1,5.8390189999999995
7645,FEQPEZ,C18 H22 N2,CC(C)c1cccc(C(C)C)c1N=Nc1ccccc1,6.55358997
7646,FEQQIB,C16 H12 S4,CSC1=C(SC)SC2=C(S1)c1cccc3cccc2c13,4.73913482
7647,FEQQUQ,C19 H15 N1 O4,CCOC(=O)C(=Cc1ccccc1)N1C(=O)C(=O)c2ccccc12,5.94459918
7648,FEQSOM,C46 H28 N4,N#Cc1ccc(cc1)N1C(=Nc2c3ccccc3c3ccccc3c12)c1ccc(cc1)c1ccc(cc1)N1c2ccccc2c2ccccc12,5.650716219999999
7649,FEQTAX,C12 H16 N4 S1,CC(=NNC(=S)N1CCCC1)c1ccccn1,5.0605012799999995
7650,FEQVOP,C17 H14 N2 O5,COC(=O)C(=C1NCCNC1=O)C1=CC(=O)c2ccccc2C1=O,5.4441818
7651,FEQWEE,C17 H12 F1 N1 O1,Oc1ccc2ccccc2c1C=Nc1cccc(F)c1,5.74405127
7652,FEQWII,C20 H22 S16,CSC1=C(SC)SC(S1)=C1SC(=C(SCCSC2=C(SC)SC(S2)=C2SC(=C(SC)S2)SC)S1)SC,5.94487129
7653,FEQYAC,C10 H4 Cl2 N2 S1,ClC1=NSN=C2c3ccccc3C(=C12)Cl,5.22295325
7654,FEQYEG,C14 H12 Cl1 N3 O1 S1,ClC1=C2C(=NSN=C2c2ccccc12)N1CCOCC1,5.105400060000002
7655,FEQYEH,C27 H22 Cl1 N1 O4,COC(=O)C1(Cc2ccccc2)NC(c2ccc(Cl)cc2)c2c(O)c3ccccc3c(O)c12,5.481733520000001
7656,FEQYIK,C10 H8 Cl3 N3 O1 S1,ClC1=C(Cl)C2=NSN=C(N3CCOCC3)C2=C1Cl,5.0825425
7657,FEQZAD,C18 H12 F6,FC(F)(F)c1ccccc1C=CC=Cc1ccccc1C(F)(F)F,5.71248606
7658,FEQZAF,C18 H16 B1 Cl3 N2 O2,CC(=O)C1=C(N[B-](OC1=[NH2+])(c1ccccc1)c1ccccc1)C(Cl)(Cl)Cl,6.33562678
7659,FEQZEJ,C20 H20 B1 Cl3 N2 O2,CN(C)C(=O)C1=C(C)O[B-]([NH+]=C1C(Cl)(Cl)Cl)(c1ccccc1)c1ccccc1,6.1924949
7660,FERBIN,C36 H40 Cl4 O3 P4,Cc1cc(C)c(c(C)c1)C12OP3C4(P1C(=PP12(Oc2c(Cl)c(Cl)c(Cl)c(Cl)c2O1)C34C(C)(C)C)C(C)(C)C)c1c(C)cc(C)cc1C,5.94732032
7661,FERBUB,C11 H11 N1 O3 S4,CC1=C(C)SC(S1)=C1SC=C(S1)C(=O)NCC(O)=O,5.25506268
7662,FERCEM,C13 H15 N1 O3 S4,CCOC(=O)CNC(=O)C1=CSC(S1)=C1SC(=C(C)S1)C,5.43547417
7663,FERCIQ,C14 H15 N1 O3 S6,CCOC(=O)C(C)NC(=O)C1=CSC(S1)=C1SC2=C(SCCS2)S1,5.3590101699999995
7664,FERCOW,C13 H13 N1 O3 S6,CCOC(=O)CNC(=O)C1=CSC(S1)=C1SC2=C(SCCS2)S1,5.4145214
7668,FESKIA,C23 H21 N3 O2,COc1ccc2nc3cc(nc(N4CCOCC4)c3cc2c1)c1ccccc1,5.21478983
7669,FESKOG,C21 H19 N3,CC(C)NC(=Cc1nc2ccccc2cc1C#N)c1ccccc1,5.5894906099999995
7670,FESKUM,C25 H18 N2 S1,C(Sc1nc(cc2nc3ccccc3cc12)c1ccccc1)c1ccccc1,5.32798919
7671,FESLAR,C34 H28 O8,O=C1c2cc3OCCOCCOc4ccc5c(c4)C(=O)c4cc(OCCOCCOc6ccc(c1c6)c2cc3)ccc54,5.41560986
7672,FESLEV,C42 H44 O12,O=C1c2cc3OCCOCCOCCOCCOc4ccc5c(c4)C(=O)c4cc(OCCOCCOCCOCCOc6ccc(c1c6)c2cc3)ccc54,5.38921481
7673,FESMIA,C32 H32 Br2 S6,CCCCCCCc1c(CCCCCCC)c2SC3=C(C4=C(SC=C4Br)S3)c2c2c1SC1=C2C2=C(SC=C2Br)S1,5.77643282
7674,FESNAV,C17 H17 Br1 N2 S1,CC1=C(Br)C2=NSN=C2C(=C1)c1ccc(cc1)C(C)(C)C,5.6561585
7675,FESNEZ,C14 H11 Br1 N2 O2,CC(=O)c1ccc(cc1)N=[N+]([O-])c1ccc(Br)cc1,5.9764365
7676,FESNUM,C24 H20 O9,CC(=O)OC1CC(O)(Cc2c(OC(C)=O)c3C(=O)c4ccccc4C(=O)c3c(O)c12)C(C)=O,6.11086074
7677,FESQUS,C27 H22 N2 O3,COc1ccc(cc1)C1=CC(=C(C)O1)c1nc2ccccc2nc1c1ccc(OC)cc1,5.52636019
7678,FESREC,C33 H32 O1,COc1c(cc(cc1C(C)(C)C)C#Cc1ccc(cc1)C#Cc1ccc(cc1)C#C)C(C)(C)C,5.77480013
7679,FESVAD,C26 H17 N1,c1ccc2c(c1)nc1ccccc1c2C1c2ccccc2c2ccccc12,5.58241564
7680,FESVUV,C20 H16 O4,O=C1C=C(COc2ccccc2)C(=O)C(=C1)COc1ccccc1,5.10866543
7681,FESVUX,C34 H28 O2 S2,CCOc1cccc(c1)C1=C(C2=C(S1)C(=C(S2)c1cccc(OCC)c1)c1ccccc1)c1ccccc1,5.8036442
7682,FESYIN,C18 H21 F6 N3 S1,FC(F)(F)c1cc(NC(=S)NC2CCC2CN2CCCC2)cc(c1)C(F)(F)F,6.0844657
7683,FETNOI,C21 H16 N4 O1 S1,OC(c1ccccc1)=C(N1N=Nc2ccccc12)C(=S)Nc1ccccc1,5.8703121000000005
7684,FETPIE,C20 H14 N2 O1 S1,O=C1N2CCN=C2SC1=Cc1c2ccccc2cc2ccccc12,5.183224630000001
7685,FETPOJ,C11 H17 N5 O2,CON=C1NC(=O)C2=NC(C)(C)C(C)(C)NC2=N1,5.6896285
7686,FETQEB,C22 H19 F1 N2 O1 S1,Fc1ccccc1NC(=O)C1=C(SC2=C1CCCC2)N=Cc1ccccc1,5.65262102
7687,FETQOM,C38 H38 N2,CCc1cc(C)cc(CC)c1N=C1c2cccc3ccc4cccc(C1=Nc1c(CC)cc(C)cc1CC)c4c23,5.115740389999999
7688,FETQUS,C34 H30 N2,Cc1cc(C)c(N=C2c3cccc4ccc5cccc(C2=Nc2c(C)cc(C)cc2C)c5c34)c(C)c1,5.19764666
7689,FETROM,C21 H15 Cl1 N4 O1 S1,OC(c1ccc(Cl)cc1)=C(N1N=Nc2ccccc12)C(=S)Nc1ccccc1,5.82759022
7690,FETTAA,C29 H26 N1 O2 P1,CCOC(=O)C(=Cc1ccccc1)N=P(c1ccccc1)(c1ccccc1)c1ccccc1,5.8205152600000005
7691,FETVEI,C19 H20 N6 O1,O=C1N=C2N=[N+]([N-]N2N=C1c1ccccc1)C12CC3CC(CC(C3)C1)C2,6.2553532
7692,FETVIJ,C29 H37 N1 O2,CN(C)c1ccc(cc1)C1CC2(C)C(CCC2(O)CC=C)C2CCC3=CC(=O)CCC3=C12,5.74377916
7693,FETVIL,C44 H44,Cc1cc(C)c(c(C)c1)C(=C=C=C=C=C=C=C(c1c(C)cc(C)cc1C)c1c(C)cc(C)cc1C)c1c(C)cc(C)cc1C,3.8604792
7694,FETZOW,C28 H20,c1ccc(cc1)C(=Cc1ccc2cc3ccccc3cc2c1)c1ccccc1,5.2003677999999995
7695,FEVDEQ,C22 H22 N2 O7,CC(=O)OCC1OC(CC1OC(C)=O)N1C=C2C=C(OC2=NC1=O)c1ccc(C)cc1,5.86867942
7696,FEVGEU,C30 H19 N5,CN(C)c1ccc(cc1)C#Cc1ccc(cc1)C(=C(C#N)C#N)C(c1ccccc1)=C(C#N)C#N,4.05748963
7697,FEVGIY,C26 H14 N4,N#CC(C#N)=C1C=CC(C=C1)=C(c1ccccc1)C(c1ccccc1)=C(C#N)C#N,4.38184933
7698,FEVGOE,C15 H5 N5,N#CC(C#N)=C(C#N)C(c1ccccc1)=C(C#N)C#N,5.3995551399999995
7699,FEVGUK,C20 H9 I1 N4,Ic1ccc(cc1)C(=C(C#N)C#N)C(c1ccccc1)=C(C#N)C#N,5.356561139999999
7700,FEVHEV,C20 H11 N5,Nc1ccc(cc1)C(=C(C#N)C#N)C(c1ccccc1)=C(C#N)C#N,4.97941135
7701,FEVNID,C18 H20 Cl1 N1 O2 S1,CC(C)N1C=CC=C(C(O)C(C)C(=O)c2ccc(Cl)cc2)C1=S,5.9726269
7702,FEVQIJ,C22 H23 N3 O2,CC(C)C([NH+]=Cc1c([O-])ccc2ccccc12)C(=O)NNc1ccccc1,5.68663525
7703,FEVVEI,C34 H24 N2 O2,Oc1ccccc1C=Nc1ccc2ccccc2c1c1c(ccc2ccccc12)N=Cc1ccccc1O,5.85180835
7704,FEVVOU,C4 H8 N2 O3 S2,O=S(=O)([O-])SCC1=[NH+]CCN1,6.6801229200000005
7705,FEVXOT,C34 H32 O6 S1,COc1ccccc1C1SC(C(C1C(=O)c1ccccc1OC)c1ccccc1OC)C(=O)c1ccccc1OC,6.33644313
7706,FEVXOW,C16 H14 O2 S8,COc1cc2SC3=C(SC(S3)=C3SC(=C(SC)S3)SC)Sc2cc1OC,5.9707221
7707,FEWBEO,C12 H18 N2 O4 S1,CCOC(=O)[C-](SC1=[N+](C)C=CN1C)C(=O)OCC,5.94976934
7708,FEWFIX,C28 H19 N1 O2,O=C1c2ccccc2C(=O)[C-]1[N+]1=Cc2ccc3ccccc3c2C(C1)c1ccccc1,4.66593619
7709,FEWGOG,C29 H20 O1,O1c2c3ccccc3c3ccccc3c2C=CC1(c1ccccc1)c1ccccc1,5.9296329100000005
7710,FEWKEZ,C23 H19 N1 O2,O=C1N(C2CC(C=CC=C2)C=Cc2ccccc2)C(=O)c2ccccc12,5.94024536
7711,FEWKID,C29 H35 N3 O1,CCN1CC(=CC=Cc2ccc(cc2)N(C)C)C(=O)C(C1)=CC=Cc1ccc(cc1)N(C)C,4.80525849
7713,FEWMAX,C13 H10 N2 O1 S5,CCOC1=C2SSSSSC2=C2C=Nc3ccccc3N12,5.83058348
7714,FEWQAC,C21 H22 N4 O2,CCN(CC)c1ccc(C=NNC(=O)c2ccc3ccccc3n2)c(O)c1,5.0896174599999995