,ID,formula,smiles,HOMO_LUMO_gap
5614,DOZQOA,C22 H24 Cl1 N1 O7,CCCCN1C(=O)C(c2cc(Cl)ccc12)=C(C(=O)OCC)C(=CC(=O)OC)C(=O)OC,5.6001030400000005
5616,DOZREP10,C8 H10 O2,CC1=CC(C)(C)C(=O)C1=O,6.69400072
5617,DOZRIT10,C11 H14 O4,CCOC(=O)C1=C(C)C(=O)C(=O)C1(C)C,6.22786969
5618,DOZROZ10,C13 H16 O4,CCOC(=O)C=CC1=C(C)C(=O)C(=O)C1(C)C,6.03521309
5619,DOZRUH,C8 H12 N2 S2,CC(C)(C)SC1=NNC(=S)C=C1,5.56336767
5620,DOZXAS,C36 H24 O2,Cc1ccc2ccccc2c1c1cccc2C(=O)c3cccc(c4c(C)ccc5ccccc45)c3C(=O)c12,4.90240313
5621,DOZXEW,C8 H7 N1 O3,CON=C1C=CC(=O)C(=O)C=C1,5.972626910000001
5622,DPANTR11,C26 H18,c1ccc(cc1)c1c2ccccc2c(c2ccccc2)c2ccccc12,5.43411359
5623,DPBCDP,C22 H16,C1=CC=C2C(=CC=C1)C(=C2c1ccccc1)c1ccccc1,4.98322095
5624,DPBUTR10,C16 H12,c1ccc(cc1)C=C=C=Cc1ccccc1,5.18540154
5625,DPCBAZ,C13 H12 N4 O1,O=C(NNc1ccccc1)N=Nc1ccccc1,5.72554752
5626,DPCDCO10,C22 H18 O2,O=C1C=CC(=O)C2CC(=C(CC12)c1ccccc1)c1ccccc1,5.78078664
5627,DPDECP01,C22 H10,c1ccc(cc1)C#CC#CC#CC#CC#Cc1ccccc1,5.592211740000001
5628,DPDTFP,C17 H12 O1 S2,O=CC(=C1SSC(=C1)c1ccccc1)c1ccccc1,5.21342926
5629,DPHETH05,C26 H16,c1ccc2c(c1)c1ccccc1C2=C1c2ccccc2c2ccccc12,4.83818426
5630,DPHOCE,C20 H18,C(C=CC=Cc1ccccc1)=CC=Cc1ccccc1,5.0515215300000005
5631,DPHPEN02,C17 H14 O1,O=C(C=CC=Cc1ccccc1)c1ccccc1,5.9299050300000005
5632,DPINOL,C28 H18 N2,c1ccc(cc1)C1=NC(c2ccccc12)=C1N=C(c2ccccc2)c2ccccc12,4.59001643
5633,DPKBPH01,C28 H19 Br1 N2 O3,Brc1ccc(cc1)N(N=C(C(=O)c1ccccc1)C(=O)c1ccccc1)C(=O)c1ccccc1,6.36800833
5634,DPMESN10,C26 H20 N4 S3,S(N=S=NSN=C(c1ccccc1)c1ccccc1)N=C(c1ccccc1)c1ccccc1,5.18240828
5635,DPMTTP10,C19 H14 S3,C1Cc2c(ss3sc(c4ccccc4)c1c23)c1ccccc1,4.769067349999999
5636,DPOCTT03,C20 H10,c1ccc(cc1)C#CC#CC#CC#Cc1ccccc1,5.642008580000001
5637,DPPRZL,C15 H14 N2,C1CC(=NN1c1ccccc1)c1ccccc1,5.7005130500000005
5638,DPTBUO,C20 H18 O4 S2,CC(=O)C(SSC(C(C)=O)=C(O)c1ccccc1)=C(O)c1ccccc1,6.231679290000001
5639,DPTFUL01,C18 H12 S4,S1C=C(SC1=C1SC=C(S1)c1ccccc1)c1ccccc1,5.14703348
5640,DPTSIM,C12 H10 N2 S3,S(N=S=NSc1ccccc1)c1ccccc1,5.362003430000001
5641,DPTZOL,C13 H10 N4 S1,[S-]C1=NN(N=[N+]1c1ccccc1)c1ccccc1,5.08744055
5643,DSPPVB,C20 H16 N2,c1ccc(cc1)C=Cc1cnc(C=Cc2ccccc2)cn1,5.0994135599999995
5644,DTACAC10,C10 H14 O4 S2,CC(O)=C(SSC(=C(C)O)C(C)=O)C(C)=O,6.59794453
5645,DTHPIM,C6 H5 N1 O2 S2,O=C1NC(=O)C2=C1SCCS2,5.81616144
5646,DTHPLI10,C12 H8 Cl1 N1 O2 S2,Clc1ccc(cc1)N1C(=O)C2=C(SCCS2)C1=O,5.84691031
5647,DTURAC01,C4 H4 N2 S2,S=C1NC=CC(=S)N1,6.200658310000001
5648,DUBGAK,C22 H24 N2 S2,CC(C)(C)Sc1ccc(cn1)C#CC#Cc1ccc(SC(C)(C)C)nc1,5.74813298
5649,DUBGOZ,C28 H20 N2 O2,CC1(Cc2ccccc2)C(=O)c2cc(c3ccc4ccccc4c3)c(C#N)c(N)c2C1=O,5.69044484
5650,DUBHAM,C25 H21 N3,Cc1c2CC3(C)Cc4ccccc4N=C3c2c(N)c(C#N)c1c1ccccc1,5.88691104
5651,DUBHOZ,C22 H21 N3 O3 S1,CCN(CC)c1ccc2C=C(C(=O)Oc2c1)C(=O)N=C1Sc2ccccc2N1C,5.57125897
5652,DUBJAN,C17 H10 N2 O3 S1,O=C(NC1=Nc2ccccc2S1)C1=Cc2ccccc2OC1=O,5.25370211
5653,DUBJER,C21 H19 N3 O3 S1,CCN(CC)c1ccc2C=C(C(=O)NC3=Nc4ccccc4S3)C(=O)Oc2c1,5.4705768500000005
5654,DUBJIV,C22 H22 N4 O4,COC(=O)CNC(=O)CNC(c1ccccc1)=C1C(=NN(C1=O)c1ccccc1)C,6.045553409999999
5656,DUBKEQ,C18 H16 B1 N1 O2,C1O[B-](Oc2cccc[n+]12)(c1ccccc1)c1ccccc1,5.64772297
5657,DUBKUI,C23 H23 Br1 N2 O4,COc1cc(OC)c2c(NC=C2c2ccc(Br)cc2)c1C(=O)C(=O)N1CCCCC1,5.822964290000002
5658,DUBNAQ,C14 H12 Cl1 N1 O2,COc1ccc(O)c(C=Nc2cccc(Cl)c2)c1,6.09698293
5659,DUBPOG,C19 H18 Br1 N1 O4,CCOC(=O)C1C(N1c1ccc(OC)cc1)C(=O)c1ccc(Br)cc1,6.08528204
5660,DUBPUN,C25 H18 N2,N#Cc1cccc(c1)c1ccc(cc1)N(c1ccccc1)c1ccccc1,5.81588933
5661,DUBQEZ,C22 H27 B1 Cl1 N1 O3,CCC1([NH+]=C(O[B-]21OC(C)(C)C(C)(C)O2)c1ccc(Cl)cc1)c1ccccc1,6.44828191
5664,DUBVON,C50 H35 N3,c1ccc(cc1)N(c1ccc(cc1)N1c2ccccc2c2ccccc12)c1ccc(N(c2ccccc2)c2cccc3ccccc23)c2ccccc12,5.63112402
5665,DUCDAI,C27 H28 Br1 N1 O2,CCCN1C(=O)C(=CC=CC=CC=C(C)CC(O)c2ccc(Br)cc2)c2ccccc12,4.738590589999999
5667,DUCLAQ,C36 H28 N2 O4,COc1cc(ccc1N=Cc1c(O)ccc2ccccc12)c1ccc(N=Cc2c(O)ccc3ccccc23)c(OC)c1,4.639813269999999
5668,DUCPOJ,C42 H61 Cl1 N3 O5 P1,CN(C)c1ccc(cc1)P(=O)(CC(=O)N(Cc1cc(c(O)c(c1)C(C)(C)C)C(C)(C)C)N=Cc1cc(cc(c1O)C(C)(C)C)C(C)(C)C)OCCCl,6.10188099
5669,DUCSAY,C14 H9 N3 O3 S1,CS(=O)(=O)C1=NN2C(=O)c3cccc4cccc(C2=N1)c34,5.822420060000001
5670,DUCSEA,C9 H11 Cl1 N4 O1,CC(=NNC(=O)NN)c1ccc(Cl)cc1,6.597400309999999
5671,DUCTIH,C25 H17 Br1 F4 N2 O2,CCCCN1C(=O)c2cc(Br)cc3c(cc(C(C#N)c4ccc(F)cc4)c(C1=O)c23)C(F)(F)F,5.863237139999999
5672,DUCWUU,C15 H14 Cl1 N1 O3,CCOC1=CC=CC(=CNc2cc(Cl)ccc2O)C1=O,4.912199230000001
5673,DUCXUV,C16 H12 N2 S2,S1C=CC=C1C=Nc1ccc(cc1)N=CC1=CC=CS1,6.06949943
5674,DUCYEG,C20 H15 N1 O2,O=Cc1ccc(cc1)N(c1ccccc1)c1ccc(C=O)cc1,5.98568837
5675,DUDCUB,C15 H8 Br1 Cl2 N1 O1,Clc1cccc(Cl)c1C=C1C(=O)Nc2ccc(Br)cc12,5.97344325
5676,DUDDAI,C15 H11 N1 O3,COc1ccc(cc1)N1C(=O)c2ccccc2C1=O,6.09317334
5677,DUDFEO,C26 H16 N4 O3 S1,O=C(N1c2ccccc2N(C(=O)c2ccc3ccccc3n2)S1=O)c1ccc2ccccc2n1,5.777793389999999
5679,DUDNAR,C6 H10 N4 O1,CC1N=NC(=NN1C(C)=O)C,6.4093696300000005
5680,DUDSOM,C25 H24 O7 S1,CCOc1ccc(cc1)C(=O)C=Cc1ccccc1OS(=O)(=O)c1ccc(OC)c(OC)c1,6.0305871600000005
5681,DUFDIT,C26 H30 O12,COC(=O)C1=C(C(=O)OC)C2(OC)OC31CCCCCCC3=C2C1(C(=O)OC)C(=C1C(=O)OC)C(=O)OC,6.18650839
5682,DUFFOC,C9 H13 N1 S1,CC(C)(C)C1=CC=CC(=S)N1,5.84037957
5683,DUFMID,C27 H18 N4 S1,S1N=C2C=CC=C(C3=NC(=C(N3c3ccccc3)c3ccccc3)c3ccccc3)C2=N1,5.1788708
5684,DUFMOJ,C28 H20 N4 S1,CC1=CC=C(C2=NC(=C(N2c2ccccc2)c2ccccc2)c2ccccc2)C2=NSN=C12,5.32445171
5685,DUFMUP,C27 H17 Br1 N4 S1,BrC1=CC=C(C2=NC(=C(N2c2ccccc2)c2ccccc2)c2ccccc2)C2=NSN=C12,5.06784835
5686,DUFNAW,C27 H17 Br1 N4 S1,BrC1=CC=C(C2=NC(=C(N2c2ccccc2)c2ccccc2)c2ccccc2)C2=NSN=C12,5.0531542
5687,DUFPIG,C12 H8 N2,N#CC(=CC=Cc1ccccc1)C#N,5.864869819999999
5688,DUFTON10,C20 H12 N2 O2 S1,O=S1(=O)C(=CC(C=C1c1ccccc1)=C(C#N)C#N)c1ccccc1,5.01451404
5691,DUFYIN,C48 H28,c1ccc(cc1)C(c1ccccc1)=C1C#Cc2ccccc2C#CC(C#Cc2ccccc2C#C1)=C(c1ccccc1)c1ccccc1,4.99546607
5693,DUGFUI,C28 H19 P1 S1,S=P(c1ccccc1)(c1ccccc1)c1ccc2ccc3cccc4ccc1c2c34,5.532074580000001
5694,DUGGET,C25 H21 N1 O3 S2,COc1ccc(cc1)N1C(=O)C(=C(Sc2ccc(C)cc2)C1=O)Sc1ccc(C)cc1,5.4512567700000005
5695,DUGGUK,C23 H18 O1,COc1ccccc1C#CC=C(c1ccccc1)c1ccccc1,5.75411948
5696,DUGKEY,C27 H25 Br1 N4 O2,CC(C)OC1=NC(=CC(C#N)=C(C#N)C#N)C(C2CCCCC2=C1)(C(C)=O)c1ccc(Br)cc1,5.228667639999999
5697,DUGKOI,C18 H18 N2 O4,COC(=O)C1=CC(=C2NCCC32C1Nc1ccccc31)C(=O)OC,6.13426253
5698,DUGKUO,C24 H20 N2 O2,COC(=O)C1=C2NCCC32C(Nc2ccccc32)c2c3ccccc3ccc12,5.917932019999999
5699,DUGLAV,C30 H27 N3 O4 S1,COC(=O)C1=C2NCCC32C(Nc2c(C)cccc32)C2=C1c1ccccc1N2S(=O)(=O)c1ccc(C)cc1,5.81779412
5700,DUGLOJ,C23 H26 N2 O6,COC(=O)C1=CC(=C2N(CCC32C1Nc1ccccc31)C(=O)OC(C)(C)C)C(=O)OC,5.805549
5704,DUGTUX,C14 H21 N1 O1,CC(C)(C)c1cc(cc(c1)C(C)(C)C)N=O,6.47576541
5705,DUGXUB,C29 H24 F3 N3 O4 S1,COc1ccc(C2C(NC3(C(=O)N(C)c4ccccc34)C32SC(=NC3=O)c2ccccc2)C(F)(F)F)c(OC)c1,5.83520941
5706,DUGZAJ,C18 H21 N5 O2,CCOC(=O)C1=CC=CC1N1C=Nc2c(ncnc12)N1CCCCC1,5.661328659999999
5707,DUGZIR,C27 H19 Br1 F3 N3 O2 S1,CN1C(=O)C2(NC(C(c3ccc(Br)cc3)C32SC(=NC3=O)c2ccccc2)C(F)(F)F)c2ccccc12,5.846366079999998
5708,DUGZUD,C16 H12 N2 O4,CCOC(=O)C1=C(C=C(C#N)C(=O)N1)C(=O)c1ccccc1,6.0694994300000005
5709,DUHCIS,C22 H20 N2,N#CC=C(C#N)c1cc2CCCc3ccc(CCCc1cc2)cc3,5.71765623
5710,DUHCUE,C26 H18 N4,N#Cc1ccc2CCCc3ccc(CCCc4c(C#N)c(C#N)c(C#N)c2c14)cc3,5.63302882
5711,DUHLAV,C17 H23 N3 O2,CCN(CC)c1ccc(C=C2N=C(C)N(C)C2=O)c(OC)c1,5.20308894
5712,DUHLEZ,C17 H23 N3 O2,CCN(CC)c1ccc(OC)c(c1)C=C1N=C(C)N(C)C1=O,4.8920628
5713,DUHLID,C16 H20 N2 O3,CCN(CC)c1ccc(C=C2N=C(C)OC2=O)c(OC)c1,5.197918769999999
5714,DUHLOJ,C16 H20 N2 O3,CCN(CC)c1ccc(OC)c(c1)C=C1N=C(C)OC1=O,4.52389276
5715,DUHMOI,C35 H32 O9,COc1ccc(cc1)C1CCc2c(OC)cc3OC(=C(C(=O)c4c(O)cc(OC)cc4OC)c3c2O1)c1ccc(OC)cc1,6.176712289999999
5716,DUHRED,C26 H36 N2 O2,CCCCCCOc1ccc(cc1)C=NN=Cc1ccc(OCCCCCC)cc1,6.04555342
5717,DUHVIO,C26 H18 O2,Oc1ccc(Oc2c3ccccc3c(c3ccccc3)c3ccccc23)cc1,5.44690294
5718,DUHXOU,C14 H16 N2 O2 S1,COc1ccc(cc1)C1NC(=S)NC(=C1C(C)=O)C,6.04691398
5719,DUHXOV,C25 H16 O1,O=C1CCc2c1c1c3ccccc3ccc1c1ccc3ccccc3c21,5.707315899999999
5720,DUHYIP,C5 H6 N2 O2,Cc1c[n+]([O-])cc[n+]1[O-],5.9350752
5721,DUHZAJ,C21 H18 F1 N1 O2,CCN1C(=C(c2ccc(OC)cc2)C2=C1C(=O)c1ccc(F)cc21)C,5.69507077
5722,DUHZEM,C20 H18 N2 O3,COc1ccc(C=CC(O)=C2C(=NN(C2=O)c2ccccc2)C)cc1,4.76906734
5723,DUHZOW,C17 H10 N4 O5,OC1=NNC(=O)c2cc(ccc12)C(=O)c1ccc2C(=NNC(=O)c2c1)O,6.098071389999999
5724,DUJBAM,C6 H8 N2 O2,Cc1c[n+]([O-])c(C)c[n+]1[O-],5.98079032
5725,DUJCIV,C32 H31 N1 O3,C=CCOc1ccc(cc1)C=C1CN(Cc2ccccc2)CC(=Cc2ccc(OCC=C)cc2)C1=O,5.984872019999999
5726,DUJDAO,C21 H16 N2 O1,Cc1ccc2cccc(NC=C3C(=O)C=Cc4ccccc34)c2n1,5.05723591
5727,DUJDUI,C27 H23 N3,CCCN1C(=CC(C=C1C=Cc1ccccc1)=C(C#N)C#N)C=Cc1ccccc1,4.94621346
5728,DUJGUL,C28 H32 N2 O2,CC(C)(C)c1cccc(C=Nc2ccccc2N=Cc2cccc(c2O)C(C)(C)C)c1O,5.96337503
5729,DUJHIC,C23 H18 N2 O2,COc1cc(ccc1O)C=NN=Cc1c2ccccc2cc2ccccc12,5.45071254
5730,DUJJIC,C19 H18 N4 O2,CCN1C=C(C(=O)NN=Cc2ccccc2)C(=O)c2ccc(C)nc12,6.14487498
5731,DUJNOM,C27 H29 N1 O11,COC(=O)C=C(N1C2C(C)C(=O)C(C)C1C13OC(C4C5OC2(C=C5)C14)C(=C3C(=O)OC)C(=O)OC)C(=O)OC,6.23739368
5732,DUJNUS,C15 H12 F3 N1 O2,COc1ccc(O)c(C=Nc2cccc(c2)C(F)(F)F)c1,6.17399115
5733,DUJPII,C18 H19 N3 O1,CCN(CC)c1ccc(C=Nc2cccc(c2)C#N)c(O)c1,5.82242006
5734,DUJPUU,C19 H13 Cl1 O1,Clc1ccc(cc1)C=CC(=O)c1cccc2ccccc12,5.92337429
5735,DUJVIO,C24 H18 F2 N4 O1 S1,CSC1=NC(=C(N1)c1ccc(F)cc1)c1ccnc(NC(=O)C(F)=Cc2ccccc2)c1,5.85589006
5736,DUKCUK,C24 H20 F2 O4,COc1cc(OC)c(C=O)c(C=Cc2ccc(OCc3ccc(F)c(F)c3)cc2)c1,5.9002446200000005
5737,DUKDEV,C23 H14 O1,O=C(c1ccccc1)c1cc2ccc3cccc4ccc(c1)c2c34,5.75085412
5738,DUKFIB,C16 H8 O4,Oc1cccc2c1OC1=C2C(=O)c2ccccc2C1=O,5.621327920000001
5739,DUKFUN,C21 H21 N3 O4 S1,CCN(CC)c1ccc2c(OC(=O)C=C2C2OC(=NN2C(C)=O)C2=CC=CS2)c1,5.89180909
5740,DUKGEY,C17 H15 Br1 N2 O1,Brc1cccc(C=[NH+]CCC2=CNc3ccccc23)c1[O-],5.46295766
5741,DUKHOH,C12 H7 Br1 N2 O2 S1,NC1=NC(=CS1)C1=Cc2cc(Br)ccc2OC1=O,5.66432191
5742,DUKHOJ,C16 H8 N2 S2,S1C=Cc2c1c1SC=Cc1c1nc3ccccc3nc21,5.444453919999999
5743,DUKHUN,C12 H7 Cl1 N2 O2 S1,NC1=NC(=CS1)C1=Cc2cc(Cl)ccc2OC1=O,5.6308519
5744,DUKNIJ,C22 H18 N2 O4 S3,CC(=O)C(SC1=NN=C(S1)SC(C(C)=O)=C(O)c1ccccc1)=C(O)c1ccccc1,5.96255869
5745,DUKYIU,C44 H34 N2 O4,O=CN(C1C(OC(=O)c2ccccc2)(C2N(C=C(OC12c1ccccc1)c1ccccc1)c1ccccc1)c1ccccc1)c1ccccc1,6.03847845
5746,DUKYUG,C25 H21 N1 O2 S1,CCOC(=O)C1=CC=C(S1)c1ccc(cc1)N(c1ccccc1)c1ccccc1,5.53697263
5747,DUKZOY,C29 H32 O13,COC1C(C)OC(OC2C(OC)C(C)(O)C(=O)c3cc4C(=O)c5cc(OC)cc(O)c5C(=O)c4c(O)c23)C(OC)C1O,6.056710090000001
5748,DULGOH,C28 H18 N2 O2,O1c2ccccc2N=C1c1ccc(C=Cc2ccc(cc2)C2=Nc3ccccc3O2)cc1,5.44472603
5749,DULHUN,C23 H26 N6 O7,COC(=O)NC(C(O)C(O)C1=C(C)N=C2N(C)C3=C(N(Cc4ccccc4)C=N3)C(=O)N12)C(=O)OC,4.6199489499999995
5750,DULJIF,C24 H24 N4,NC(C#N)=C(C#N)N1C(=CC=C1C12CC3CC(CC(C3)C1)C2)c1ccccc1,6.0825609
5751,DULJOL,C26 H28 N4,CN(C)C(C#N)=C(C#N)N1C(=CC=C1C12CC3CC(CC(C3)C1)C2)c1ccccc1,6.03847845
5752,DULKOL,C18 H19 N5 O3,COc1cc(NC(=O)C(=Cc2ccc(cc2)N(C)C)C#N)nc(OC)n1,5.42921554
5753,DULLAY,C19 H14 N2 O4,Nc1cc2OCOc2cc1C(=O)C=CC1=Cc2ccccc2NC1=O,4.832197750000001
5754,DULMEF,C23 H12 Cl1 N1 S1,Clc1ccc2SC(=Nc2c1)c1ccc2ccc3cccc4ccc1c2c34,5.15655746
5755,DULTAI,C16 H14 Cl2 F1 N3,CN(C)c1ccc(cc1)C(N=Nc1ccc(F)cc1)=C(Cl)Cl,5.131523
5756,DUMFOJ,C31 H28 N2 O1,CCCCOc1ccc(cc1)C(=Cc1ccc(cc1)N(c1ccccc1)c1ccccc1)C#N,5.36798993
5757,DUMFUP,C29 H24 N2 O1,CCOc1ccc(cc1)C(=Cc1ccc(cc1)N(c1ccccc1)c1ccccc1)C#N,5.41941944
5758,DUMGAW,C31 H28 N2 O1,CCCCOc1ccc(cc1)C(=Cc1ccc(cc1)N(c1ccccc1)c1ccccc1)C#N,5.37016684
5759,DUMGEA,C32 H30 N2 O1,CCCCCOc1ccc(cc1)C(=Cc1ccc(cc1)N(c1ccccc1)c1ccccc1)C#N,5.30703643
5760,DUMGIE,C33 H32 N2 O1,CCCCCCOc1ccc(cc1)C(=Cc1ccc(cc1)N(c1ccccc1)c1ccccc1)C#N,5.338329519999999
5761,DUMHAW,C14 H14 Cl1 N3 O2,Clc1ccc(cc1)C1=CC(=NNC1=O)N1CCOCC1,6.01670934
5762,DUMHEA,C9 H8 N2 O1 S1,C[N+]([O-])=CC1=Nc2ccccc2S1,6.10433001
5763,DUMHEB,C16 H14 Cl4 N2 O1 S1,ClCCN(CCCl)C1=NC(=C(S1)C=CC(=O)c1ccc(Cl)cc1)Cl,5.54268702
5764,DUMHOL,C41 H52 N4 O1,CCCCCCCCN(CCCCCCCC)C1=C(C#N)C2=C(C(N1)c1ccc(cc1)N(C)C)C(=O)c1cc3ccccc3cc21,5.07573965
5765,DUMHUR,C31 H26 N4 O2,CN(C)c1ccc(cc1)C=Cc1nc(N2CCOCC2)c(C#N)c2c3cc4ccccc4cc3C(=O)c12,4.72444067
5768,DUMJOK,C17 H12 N2 O2 S1,O=S1(=O)C(=C[C-](C=C1c1ccccc1)[N+]#N)c1ccccc1,5.8999725100000004
5769,DUMMAA,C19 H20 Cl1 N1 O1,CCN(CC)c1ccc(C=CC(=O)c2ccc(Cl)cc2)cc1,5.35411212
5770,DUMPEH,C12 H9 I1 N2 O1 S1,Ic1ccc(NN=CC2=CC=C(S2)C=O)cc1,5.28771634
5771,DUMPIL,C29 H29 N3 O3,CCOC(=O)C(Cc1ccccc1)NC(c1ccc(C)cc1)=C1C(=NN(C1=O)c1ccccc1)C,6.23440043
5772,DUMPIN,C40 H36 N4,CCCCc1ccc(cc1)N1C(=CC2=C1C=C(N2c1ccc(CCCC)cc1)c1ccc(cc1)C#N)c1ccc(cc1)C#N,5.32037001
5773,DUMQOT,C30 H31 Cl2 N3 O4 S1,CCCCCCC1=C2N(CCC32CC(C)C1C1(C#N)C(=O)C(=C(Cl)C(=O)C31C#N)Cl)S(=O)(=O)c1ccc(C)cc1,5.235198370000001
5774,DUMSUA,C16 H15 N3 O3,COc1cc(C=CC=NNC(=O)c2ccncc2)ccc1O,5.813712420000001
5775,DUMTAI,C19 H17 F1 N2 O2,COc1ccc(cc1OC)c1nnc(C)cc1c1ccc(F)cc1,6.20555636
5776,DUMWAK,C31 H23 Cl1 F1 N3,Cc1nc2ccc(Cl)cc2c(c2ccccc2)c1C1=NN(C(C1)c1ccc(F)cc1)c1ccccc1,5.5894905999999995
5777,DUMWIS,C23 H26 O7,COc1cc(OC)c(C=CC(=O)C=Cc2cc(OC)c(OC)cc2OC)cc1OC,5.33669684
5778,DUMWOY,C17 H14 N2 O1,Cc1ccc([NH+]=Cc2c([O-])ccc3ccccc23)nc1,5.3320709
5779,DUMXOZ,C22 H18 N4 O2 S2,O=C(NC(=S)Nc1ccccc1)c1ccc(cc1)C(=O)NC(=S)Nc1ccccc1,5.448807750000002
5780,DUMYIV,C16 H13 N5 O2,Nc1ccc(cc1N=Cc1ccc(cc1)N1C=NC=N1)C(O)=O,5.49969303
5781,DUMZET,C27 H19 N3 O2 S1,COc1cccc2ccc(COc3cccc4ccc(nc34)C3=Nc4ccccc4S3)nc12,5.4504404200000005
5782,DUNDAU,C18 H14 N2 O1,CCc1ccc(cc1)C(C#N)=C1Nc2ccccc2C1=O,5.1995514599999995
5783,DUNFOI,C26 H18 N2,c1ccc(cc1)C(=NN=C1c2ccccc2c2ccccc12)c1ccccc1,5.81425664
5784,DUNGEA,C40 H28 N4,N1C2=CC=C1c1ccccc1C1=CC=C(N1)c1ccccc1C1=CC=C(N1)c1ccccc1C1=CC=C(N1)c1ccccc21,5.4809171800000005
5785,DUNGOJ,C16 H15 N5,Cc1ccc(N)cc1Nc1nccc(n1)c1cccnc1,5.694526550000001
5786,DUNHOL,C17 H16 N4 O2,CCOC(=O)c1ccc(cc1)N1N=NC(=C1N)c1ccccc1,6.0684109799999995
5787,DUNION,C21 H19 Br1 N2 O2,CC1OC2=C(C(=O)C(=NNc3ccc(Br)cc3)c3ccccc23)C1(C)C,5.13995852
5788,DUNJIH,C19 H22 N2 O3 S1,COc1ccc(C=CN=S(=O)(N2CCOCC2)c2ccccc2)cc1,5.98949796
5789,DUNKEE,C23 H17 Cl1 N2,Clc1ccc(cc1)C=C1N=C(N2Cc3ccccc3C2)c2ccccc12,5.25098097
5790,DUNKOO,C32 H21 Br4 N1 O1,Brc1ccc(CC2=C3C(OC(=C(N3C=C2)c2ccc(Br)cc2)c2ccc(Br)cc2)c2ccc(Br)cc2)cc1,5.4896248199999995
5791,DUNKUV,C37 H28 O1 S8,CSC1=C(SC)SC(S1)=Cc1ccc(cc1)c1ccc2c(c1)C(=O)c1cc(ccc21)c1ccc(cc1)C=C1SC(=C(SC)S1)SC,4.44525186
5792,DUNLAC,C36 H50 S4,CCCCCCCCCCSC1=C(SCCCCCCCCCC)SC(S1)=C1c2ccccc2c2ccccc12,5.48363831
5793,DUNMUU,C30 H25 N3 O4,COc1cc2CCN3C(=O)N(c4ccccc4)C4=C(C=CC4=C3c2cc1OC)C(=O)Nc1ccccc1,5.43928376
5794,DUNPAE,C22 H17 Br1 O6,CCOC(=O)C1(O)CC(c2ccc(Br)cc2)C2=C(O1)C(=O)c1ccccc1C2=O,5.855073719999999
5795,DUNRUC,C23 H19 N1 O3 S1,COC(=O)C1=C(Sc2ccccc2C2C=CC=CN12)C(=O)c1ccc(C)cc1,5.42649441
5796,DUNTEM,C18 H17 N3 S2,CSc1ccc(cc1)C=NC1=NN=C(S1)c1cc(C)cc(C)c1,5.57642914
5797,DUNVIR01,C18 H16 Br1 N3 O4 S1,CC1=NOC(=C1C)NS(=O)(=O)c1ccc([NH+]=Cc2cc(Br)ccc2[O-])cc1,4.83328622
5798,DUNXIT,C21 H20 N4,CN1CCN(CC1)C1=Nc2ccccc2C(=CC#N)c2ccccc12,6.15303839
5799,DUNXOZ,C22 H22 N4,CN1CCN(CC1)C1=Nc2ccc(C)cc2C(=CC#N)c2ccccc12,6.02405642
5800,DUPBAS,C17 H12 O1,OCc1ccc2ccc3cccc4ccc1c2c34,5.72010525
5802,DUPBEY,C30 H27 N5 O4,CCN(CC)c1ccc2C=C(C=NNC(=O)c3cccc(COc4cccc5cccnc45)n3)C(=O)Oc2c1,5.3930244
5803,DUPBOG,C13 H14 N2 O2,CC1[NH2+]C(CC2=C1Nc1ccccc21)C(=O)[O-],6.63141453
5804,DUPCIB,C15 H15 N1 O2,CCc1ccccc1[NH+]=Cc1cccc(O)c1[O-],5.06158973
5805,DUPDEY,C14 H10 N2 O1,O=C1Nc2ccccc2C1=Nc1ccccc1,6.35086516
5806,DUPHAX,C42 H20,c1ccc2c(c1)cc1c3ccccc3c3c4ccc5cccc6c7ccc8cccc9c%10cc2c1c3c%10c(c7c89)c4c56,4.08388467
5807,DUPLUV,C18 H9 N3 O3,O=C1c2cccc(n2)C(=O)c2cccc(n2)C(=O)c2cccc1n2,6.5247459
5808,DUPMAC,C23 H18 N4 O4,N#CC1=C2NC(=CC=C2)C2(OCCO2)c2cccc(n2)C2(OCCO2)c2cccc1n2,5.24635504
5809,DUPMOQ,C20 H14,c1ccc(cc1)C(c1ccccc1)=C1c2ccccc12,5.506768
5810,DUPRIP,C32 H24,c1ccc(cc1)C(c1ccccc1)=C1C=CC(C=C1)=C(c1ccccc1)c1ccccc1,4.20579167
5811,DUPVOC,C31 H28 I1 N1 O7,COc1ccc(cc1)C1C(Oc2cc3OCOc3cc12)C(C(=O)OC(C)(C)C)=C1C(=O)N(C)c2ccc(I)cc12,5.44363758
5812,DUPYAO,C12 H11 N3 O1,Cc1ccc(cc1)N=Nc1ccc(O)cn1,6.24011482
5813,DUPYAQ,C32 H30,Cc1cc2cc(C)cc3C(C4C(=Cc5cc(C)cc6cc(C)cc4c56)C)C(=Cc(c1)c23)C,5.78405201
5814,DUQDIF,C21 H14 N4,N#Cc1ccccc1N=C(N1C=C2C=CC=CC2=N1)c1ccccc1,5.70132939
5815,DUQLEJ,C18 H13 N3 O1 S1,Cc1ccc(SC2=NC(=Cc3ccc(cc3)C#N)C(=O)N2)cc1,5.5103054700000005
5816,DUQNAF,C19 H19 N1 O2 S1,CCOC(=O)C1=C(Nc2ccccc2CS1)c1ccc(C)cc1,5.956844299999999
5817,DUQNUZ,C20 H20 Cl1 N1 O4 S1,CCOC(=O)C1=C(NCc2cc(OC)c(OC)cc2S1)c1ccc(Cl)cc1,5.936707869999999
5818,DUQREP,C17 H11 N3,CC1=CN(c2ccc(C#N)c(c2)C#N)c2ccccc12,5.82650177
5819,DUQRIT,C24 H20 N2 O5 S1,COC(=O)C=C(C1=C(N=C2C=CC=CN12)c1ccc(OC)cc1)S(=O)(=O)c1ccccc1,5.21751097
5820,DUQSAL,C20 H21 N1 O2,CCCCOc1ccc(cc1OC)C=C(C#N)c1ccccc1,5.773167450000001
5823,DUQXOE,C20 H16 Cl4 N5 P3,ClP1(=NP(=NP(=N1)(Nc1cccc2ccccc12)Nc1cccc2ccccc12)(Cl)Cl)Cl,5.99194699
5824,DURDOL,C30 H31 N5,CCN1C(=CC(C=C1C=Cc1ccc(cc1)N(C)C)=C(C#N)C#N)C=Cc1ccc(cc1)N(C)C,5.062133960000001
5825,DURFAZ,C18 H13 Br1 N2,CN1C=C(C(=Cc2ccccc2Br)C#N)c2ccccc12,5.748949319999999
5826,DURKEI,C16 H25 N5 O6 S1,CCOC(=O)CN1C(N(C)C2=NC(=NS(=O)(=O)C2=C1C)N(C)C)C(=O)OCC,6.52773916
5827,DURMIP,C34 H42 N4 O7,CCOC(=O)C1=CNC(=C1)C=C1N=C(C=C(C(=O)OC)C(=O)C2=CNC(=C2)C=C2N=C(CC2(C)C)C(OC)OC)C(CC)C1C,4.76933946
5828,DURNIP,C26 H24 S2,CCCCCCc1ccc2c(SC3=C2Sc2cc(ccc32)c2ccccc2)c1,5.63683842
5829,DURNOW,C30 H26 N2 O3,Cc1ccc(C)c2C(OC(=CC3=NC(CO3)c3ccccc3)c12)=CC1=NC(CO1)c1ccccc1,5.67248533
5830,DURNUC,C24 H30 N2 O3,CC(C)C1COC(=N1)C=C1OC(=CC2=NC(CO2)C(C)C)c2c(C)ccc(C)c12,5.58241564
5831,DUROQN11,C10 H12 O2,CC1=C(C)C(=O)C(=C(C)C1=O)C,6.375355399999999
5832,DURPAK,C28 H22 N2 O2 S1,C1OC(=NC1c1ccccc1)C=C1SC(=CC2=NC(CO2)c2ccccc2)c2ccccc12,5.53887742
5833,DURPEO,C16 H16 O4 S1,CCOC(=O)C=C1SC(=CC(=O)OCC)c2ccccc12,5.60745012
5834,DURRUF,C30 H39 P1,Cc1ccc(C=Pc2c(cc(cc2C(C)(C)C)C(C)(C)C)C(C)(C)C)c2ccccc12,5.57452434
5835,DURRUG,C17 H28 N2 O3,CC1CC2CC(=NO)C(=O)CCCN(C)CCCC2C(=O)C1,6.416444590000001
5836,DURWIZ,C22 H17 N1 O3 S1,Cc1ccc(cc1)S(=O)(=O)N1C(=Cc2ccccc2)C(=O)c2ccccc12,5.913033970000001
5837,DURYOG,C15 H18 B1 F2 I1 N2,CCC1=C(C)C2=CC3=C(C)C(=C(C)N3[B-](F)(F)[N+]2=C1C)I,4.66892945
5838,DUSDIG,C25 H18 N2 O2,O=C1OC(=C(C#N)C#N)C(C1=C1CCCC1)=C(c1ccccc1)c1ccccc1,4.65777278
5839,DUSFED,C18 H15 N3 O2,C=CCN1C(=O)C(=NNC(=O)c2ccccc2)c2ccccc12,5.9584769899999985
5840,DUSFOP,C19 H18 Br1 N1 O1 S1,BrC1=CC=C(S1)C(=O)C=Cc1cc2CCCN3CCCc(c1)c23,5.2436339
5841,DUSFUV,C15 H14 Br1 N1 O1 S1,CN(C)c1ccc(C=CC(=O)C2=CC=C(Br)S2)cc1,5.296151869999999
5842,DUSGEG,C15 H14 I1 N1 O1 S1,CN(C)c1ccc(C=CC(=O)C2=CC=C(I)S2)cc1,5.37098318
5843,DUSJAD,C13 H14 N4,CN(C)c1ccc(cc1)N=Nc1ccccn1,5.47574702
5844,DUSJEH,C18 H12 N2 O1 S1,ON=C1SC(=CC1=C(C#N)c1ccccc1)c1ccccc1,4.9587307
5845,DUSJIM,C25 H18 B1 N3 O1,O=C1N2C(=Nc3cccc[n+]3[B-]2(c2ccccc2)c2ccccc2)c2ccccc12,5.7500377799999995
5846,DUSLUZ,C12 H16 N2 S1,CN1CC2CC(C1)C1=CC=CC(=S)N1C2,5.932081940000001
5847,DUSMAG,C19 H15 Cl1 N2 S1,Clc1ccccc1N=Nc1ccccc1SCc1ccccc1,5.5897627100000005
5848,DUSMUC,C31 H26 F5 N3 O9,CC(=O)OCC1OC(C(OC(C)=O)C1OC(C)=O)N1N(C(=O)c2c1nc(cc2C(F)(F)F)c1ccc(OC(F)F)cc1)c1ccccc1,5.98405569
5849,DUSNAJ,C28 H24 F3 N3 O9,CC(=O)OCC1OC(C(OC(C)=O)C1OC(C)=O)N1N(C(=O)c2c1nc(cc2C(F)(F)F)C1=CC=CO1)c1ccccc1,5.9922191
5850,DUSNIP,C17 H15 Br1 O3,COc1ccc(OC)c(C=CC(=O)c2ccccc2Br)c1,5.899156159999999
5851,DUSNOX,C26 H22 F5 N3 O6,CC1OC(C(O)C(O)C1O)N1N(c2ccccc2)C(=O)c2c1nc(cc2C(F)(F)F)c1ccc(OC(F)F)cc1,5.87167266
5852,DUSPEM,C56 H40,c1ccc(cc1)C(c1ccccc1)=C1C(=C(c2ccccc2)c2ccccc2)C(=C(c2ccccc2)c2ccccc2)C1=C(c1ccccc1)c1ccccc1,5.4401000999999995
5853,DUSREP,C18 H19 N1 O4,COc1cc(OC)c(C=CC(=O)c2ccc(N)cc2)cc1OC,5.82350851
5854,DUSTER,C21 H17 N1 O2,OC1(Cc2ccccc2)c2ccccc2[N+](=C1c1ccccc1)[O-],5.83466518
5855,DUSWAQ,C21 H23 N1 O2,COc1ccc(C=CC(=O)c2ccc(cc2)N2CCCCC2)cc1,5.80391632
5856,DUSWIZ,C28 H30 N4 O4,CCOC(=O)C1(C#N)C(=C(OCC)OC(=C1c1ccc(cc1)N(C)C)c1ccc(cc1)N(C)C)C#N,6.24664555
5857,DUSWOF,C28 H30 N4 O4,CCOC(=O)C(C(OCC)=C(C#N)C#N)=C(C(=O)c1ccc(cc1)N(C)C)c1ccc(cc1)N(C)C,5.50867279
5858,DUSWUL,C18 H16 N4 O2,CCOC(=O)C(=CC(c1ccc(cc1)N(C)C)=C(C#N)C#N)C#N,4.91682516
5859,DUSXAS,C22 H26 N2 O6,CCOC(=O)C(=CC(c1ccc(cc1)N(C)C)=C(C#N)C(=O)OCC)C(=O)OCC,5.24526658