,ID,formula,smiles,HOMO_LUMO_gap
5860,DUSXEW,C21 H24 N2 O6,CCOC(=O)C(=CC(=O)c1ccc(cc1)N(C)C)C(OCC)=C(C#N)C(=O)OC,5.427038629999999
5861,DUSXOG,C22 H26 N2 O6,CCOC(=O)C(=CC(=O)c1ccc(cc1)N(C)C)C(OCC)=C(C#N)C(=O)OCC,5.363908220000001
5862,DUSYAT,C18 H16 N4 O2,CCOC(=O)C(C#N)=C(C=C(C#N)C#N)c1ccc(cc1)N(C)C,5.05233786
5863,DUSYEX,C20 H21 N3 O4,CCOC(=O)C(=CC(c1ccc(cc1)N(C)C)=C(C#N)C#N)C(=O)OCC,5.23356569
5864,DUSZAT,C14 H11 Br1 N2 O2,ON=Cc1ccc(cc1)N=Cc1cc(Br)ccc1O,5.82704599
5865,DUTBAW,C15 H18 N2 O4,COc1cc(OC)c(C=NC2=C(C)C(=NO2)C)cc1OC,5.622416380000001
5866,DUTCIG,C37 H29 N3 O3,COc1ccc(cc1)C(=O)C1C2CCc3ccccc3C2=C(C#N)C(=N)C21C(=O)N(Cc1ccccc1)c1ccccc21,5.78405201
5867,DUTCUS,C37 H28 Cl1 N3 O2,Cc1ccc2N(Cc3ccccc3)C(=O)C3(C(C4CCc5ccccc5C4=C(C#N)C3=N)C(=O)c3ccc(Cl)cc3)c2c1,5.6030963
5868,DUTDAZ,C37 H28 F1 N3 O2,Cc1ccc(cc1)C(=O)C1C2CCc3ccccc3C2=C(C#N)C(=N)C21C(=O)N(Cc1ccccc1)c1ccc(F)cc21,5.85262469
5869,DUTDIH,C37 H28 Cl1 N3 O2,Cc1ccc(cc1)C(=O)C1C2CCc3ccccc3C2=C(C#N)C(=N)C21C(=O)N(Cc1ccccc1)c1ccc(Cl)cc21,5.96446349
5870,DUTDON,C34 H30 Cl1 N3 O2,CCCCN1C(=O)C2(C(C3CCc4ccccc4C3=C(C#N)C2=N)C(=O)c2ccc(Cl)cc2)c2cc(C)ccc12,5.52336693
5871,DUTDUT,C33 H29 N3 O3,CCOC(=O)C1C2CCc3ccccc3C2=C(C#N)C(=N)C21C(=O)N(Cc1ccccc1)c1ccc(C)cc21,5.6509883300000014
5872,DUTFAB,C32 H26 Cl1 N3 O3,CCOC(=O)C1C2CCc3ccccc3C2=C(C#N)C(=N)C21C(=O)N(Cc1ccccc1)c1ccc(Cl)cc21,5.7584733
5873,DUTFII,C19 H15 Cl1 N2,Clc1ccc(cc1)C=Nc1ccc(Nc2ccccc2)cc1,5.621327920000001
5874,DUTFIK,C17 H16 N2 O1 S1,CCCOc1ccc(cc1)C=NC1=Nc2ccccc2S1,5.973443250000001
5875,DUTFUV,C37 H27 Cl1 N2 O3,Cc1ccc(cc1)C(=O)C1C2CCc3ccccc3C2=C(C#N)C(=O)C21C(=O)N(Cc1ccccc1)c1ccc(Cl)cc21,5.74377915
5876,DUTGEG,C32 H26 F1 N3 O3,CCOC(=O)C(C1CCc2ccccc2C1=C(C#N)C#N)C1C(=O)N(Cc2ccccc2)c2ccc(F)cc12,5.89126486
5877,DUTGIJ,C20 H19 N3 O1,CCN1c2ccccc2c2cc(ccc12)C=NC1=C(C)C(=NO1)C,5.76718095
5878,DUTGIK,C38 H20 S4,S1c2cc3cc4c(SC5=C4Sc4cc(ccc54)c4ccccc4)cc3cc2C2=C1c1ccc(cc1S2)c1ccccc1,4.85641589
5879,DUTJOT,C18 H13 Cl1 N2 O1,Cc1ccc(cc1)N=C(C#N)C(=O)C=Cc1ccc(Cl)cc1,5.698064029999999
5880,DUTKEJ,C23 H20 O6,CC1(C)Oc2cc3Oc4cc(O)c5OC(C)(C)C=Cc5c4C(=O)c3c(O)c2C=C1,5.98323935
5881,DUTKOU,C27 H39 N1 O3,COc1ccc2N(OC3CCCCC3)C(C3CCCCC3)(C3CCCCC3)C(=O)c2c1,6.19929775
5882,DUTKUZ,C18 H22 N2 O6,COC(=O)C1CCCN1C1=CC(=O)C(=CC1=O)N1CCCC1C(=O)OC,5.398194569999999
5883,DUTLEK,C16 H12 N2 O3,Oc1ccc2ccccc2c1C=NN=C(O)C1=CC=CO1,5.4243175
5884,DUTLUA,C22 H19 N1 O1,Cc1cccc(N=C(c2ccccc2)C(=O)c2ccccc2)c1C,6.27685019
5885,DUTMAH,C14 H8 N4 S6,N#CCCSC1=C(SCCC#N)SC(S1)=C1SC(=C(S1)C#N)C#N,4.70457636
5886,DUTMAJ,C26 H19 N1 O2,CON1C(=O)C2=C(C=C3C=CC=CC=C23)C(=C1c1ccccc1)c1ccccc1,5.01587461
5887,DUTMEN,C21 H21 N1 O6 S2,COC(=O)C1=C(N2C=CC=CC2CC(S1)=CS(=O)(=O)c1ccc(C)cc1)C(=O)OC,5.70377842
5888,DUTMUB,C35 H28 N2 O3,OC12N3CC(=Cc4ccccc4)C(=O)C4(C3)C(C(NC14C(=O)c1ccccc21)c1ccccc1)c1ccccc1,6.41290712
5889,DUTNAI,C37 H32 N2 O3,Cc1ccc(cc1)C=C1CN2CC3(C(C(NC43C(=O)c3ccccc3C24O)c2ccccc2)c2ccc(C)cc2)C1=O,6.31657881
5890,DUTPUE,C18 H20 O4 S1,COc1cc(OC)c(C=CC(=O)C2=C(C)SC(=C2)C)cc1OC,5.62459329
5891,DUTQEP,C18 H13 Cl1 F1 N3 O2,Fc1ccc(cc1Cl)N1C(C(CC1=O)c1ccccc1)C(=O)C=[N+]=[N-],6.5500525
5892,DUTSAO,C27 H15 Br1 O3,Brc1ccc(cc1)C1c2c(OC3=C1C(=O)C(=O)c1ccccc31)ccc1ccccc21,5.2692126
5893,DUTSES,C27 H16 O3,O=C1C(=O)C2=C(Oc3ccc4ccccc4c3C2c2ccccc2)c2ccccc12,5.20608219
5894,DUTTIV10,C20 H20 Cl1 N5 O3 S2,CN1CCN(CC1)C(=O)OC1N(C(=O)C2=C1SCCS2)c1ccc2ccc(Cl)nc2n1,5.78241932
5895,DUTWUL,C17 H18 O3 S1,COc1ccc(C=CC(=O)C2=C(C)SC(=C2)C)cc1OC,5.98840951
5896,DUVCED,C20 H16 N6 O3 S1,Cc1ccc(OCC2=NN=C3SCC(=NN23)C2=C([O-])ON=[N+]2c2ccccc2)cc1,5.62105581
5897,DUVFIK,C20 H16 N6 O3 S1,Cc1ccc(cc1)[N+]1=NOC(=C1C1=NN2C(=NN=C2SC1)COc1ccccc1)[O-],5.8308555900000005
5898,DUVGEH,C22 H17 Cl1 N2 O2,COc1ccc(cc1OC)c1nc2ccccc2nc1c1ccccc1Cl,5.7611944500000005
5899,DUVHEI,C18 H22 N2 O3,COc1ccc(cc1)C=Nc1ccc(cc1)N(CCO)CCO,5.88446202
5900,DUVHUX10,C10 H8 N2 S3,CC1=C(SSC1=S)C=Cc1cnccn1,4.87274272
5901,DUVJUA,C22 H19 N3 O2,CN1N(c2ccccc2)C(=O)C(=C1C)N=Cc1ccc2ccccc2c1O,5.79956249
5902,DUVMEM,C22 H16 O5,CCOC(=O)CC1C(=O)c2ccccc2C1=C1C(=O)c2ccccc2C1=O,6.028410240000001
5903,DUVMIQ,C27 H21 N1 O3,CC(=O)OCCN1C(=C(c2ccccc2)C2=C1c1ccccc1C2=O)c1ccccc1,5.637926869999999
5904,DUVRIY,C30 H23 N3 O1,Nc1ccccc1C(C1=Cc2ccccc2N1)=C1C(=O)N(Cc2ccccc2)c2ccccc12,4.9862142
5905,DUVTIA,C19 H22 N2 O3,CCOCC1=C(C)N2CCC3(O)c4ccc(OC)cc4N=C3C2=C1,5.843372830000001
5906,DUVVIB,C21 H18 O4,CC(O)=C(C(C)=O)C1=C(c2ccccc2)c2ccc(C)cc2OC1=O,6.44420021
5907,DUVWID,C13 H12 N2 O3,COc1ccc2C3=C(Nc2c1)C(=O)C(=O)NCC3,6.007185359999999
5908,DUVYAW,C37 H44 N4 O8,COC(C1=C(C)C(=C(N1)C=C1N=C(C=C2NC(=O)C(=C2C)C=C)C(=C1CCC(=O)OC)C)CCC(=O)OC)C1(NC(=O)C(=C1C=C)C)OC,4.14864777
5909,DUWBAY,C16 H16 O5,COc1cccc2c(O)c3C(=O)C(C)OC(C)c3c(O)c12,5.7500377700000005
5910,DUWBOP,C16 H25 N1 O2,C[NH+]=Cc1c([O-])c(O)c(cc1C(C)(C)C)C(C)(C)C,5.39248018
5911,DUWBUV,C19 H31 N1 O2,CC(C)(C)[NH+]=Cc1c([O-])c(O)c(cc1C(C)(C)C)C(C)(C)C,5.423501150000001
5912,DUWCEG,C22 H29 N1 O2,Cc1ccc(cc1)N=Cc1c(O)c(O)c(cc1C(C)(C)C)C(C)(C)C,6.1394327
5913,DUWCIK,C22 H29 N1 O3,COc1ccc(cc1)N=Cc1c(O)c(O)c(cc1C(C)(C)C)C(C)(C)C,5.98732105
5914,DUWCUW,C21 H26 F1 N1 O2,CC(C)(C)c1cc(c(C=Nc2ccc(F)cc2)c(O)c1O)C(C)(C)C,6.17698441
5915,DUWDIL,C21 H26 I1 N1 O2,CC(C)(C)c1cc(c(C=[NH+]c2ccc(I)cc2)c([O-])c1O)C(C)(C)C,4.957914349999999
5916,DUWDOR,C16 H10 Br1 Cl1,Clc1ccccc1C#CC=C(Br)c1ccccc1,5.84337283
5917,DUWDUX,C26 H16 Br2,BrC=C(C#Cc1ccccc1)c1ccc(cc1)C(=CBr)C#Cc1ccccc1,5.71275818
5918,DUWHEJ,C34 H44,CC(C)Cc1ccc(CC(C)C)c2cc3cc4c(CC(C)C)ccc(CC(C)C)c4cc3cc12,4.5404917000000005
5919,DUWHIN,C38 H52,CC(C)CCc1ccc(CCC(C)C)c2cc3cc4c(CCC(C)C)ccc(CCC(C)C)c4cc3cc12,4.74185596
5920,DUWHOT,C30 H36,CC(C)c1ccc(C(C)C)c2cc3cc4c(ccc(C(C)C)c4cc3cc12)C(C)C,4.579403989999999
5921,DUWKOX,C19 H24 N2 O2,OCC(C=C)C1CC[N+]2([O-])CCC3=C(Nc4ccccc34)C2C1,7.286392579999999
5922,DUWNAL,C36 H36 N2,CC(C)N(C(C)C)c1ccc(cc1)C#CC#CC#CC#CC#CC#Cc1ccc(cc1)N(C(C)C)C(C)C,4.7508357199999995
5923,DUWPER,C24 H24,CCCc1ccc(CCC)c2cc3cc4ccccc4cc3cc12,4.54430131
5924,DUWTAT,C47 H41 N1 O2,Cc1cc(C)c(c(C)c1)c1ccc2N3c4ccc(cc4C(=O)c4cc(cc(C(=O)c2c1)c34)c1c(C)cc(C)cc1C)c1c(C)cc(C)cc1C,5.48254986
5925,DUWTUM,C36 H38 N12 S4,CCNC(=S)NN=C1c2cccc3cccc(C1=NN=C(NCC)SSC(NCC)=NN=C1c4cccc5cccc(C1=NNC(=S)NCC)c45)c23,4.97913924
5926,DUWVAU,C20 H20 N6 S2,C=CCNC(=S)NN=C1c2cccc3cccc(C1=NNC(=S)NCC=C)c23,5.1317951100000005
5927,DUWWOK,C24 H10 N4,N#Cc1cc2nc3c4cccc5ccc6cccc(c3nc2cc1C#N)c6c45,4.9113828900000005
5928,DUWXIC,C24 H24 S2,CC(C)(C)SC1=C2C3=CC=CC3=C3C(=C3C3=CC=CC3=C12)SC(C)(C)C,5.05669168
5929,DUWXIF,C32 H22 N8,CC(C)(C)c1cc2c3nc(C#N)c(nc3c3cc(cc4c5nc(C#N)c(nc5c(c1)c2c34)C#N)C(C)(C)C)C#N,5.652893130000001
5930,DUWXUQ,C24 H17 N1 O4,OC(=O)c1ccccc1Oc1ccccc1N=Cc1c(O)ccc2ccccc12,5.37751391
5931,DUXCIL,C27 H19 N3 O1,Oc1ccc(cc1C=NN=C(c1ccccc1)c1ccccc1)c1ccc(cc1)C#N,6.04256016
5932,DUXCUX,C24 H18 N2 O1,Oc1c(ccc2ccccc12)C=NN=C(c1ccccc1)c1ccccc1,5.87167266
5933,DUXFIM,C23 H23 N1 O2,COC1[N+](=C(CC1(C)C)C=Cc1c2ccccc2cc2ccccc12)[O-],4.91872996
5934,DUXFOS,C14 H17 N1 O2,CC1(C)CC(=[N+]([O-])C1O)C=Cc1ccccc1,5.59357231
5935,DUXHIQ,C21 H16 N2 O1,COc1ccc(cc1)c1nc2ccccc2c(n1)c1ccccc1,5.88282934
5936,DUXHUC,C7 H5 N5,c1ccc(nc1)c1nncnn1,6.451819400000001
5937,DUXKIT,C22 H18 N2 O2,COc1cc(OC)cc(c1)c1nc2ccccc2c(n1)c1ccccc1,5.85371315
5938,DUXKUF,C26 H18 S2,C1Cc2cc(ccc2S1)C#Cc1ccc(cc1)C#Cc1ccc2SCCc2c1,5.60663377
5939,DUXLAM,C34 H22 S2,C1Cc2cc(ccc2S1)C#Cc1c2ccccc2c(C#Cc2ccc3SCCc3c2)c2ccccc12,4.42702023
5940,DUXLEQ,C23 H20 N2 O3,COc1cc(cc(OC)c1OC)c1nc2ccccc2c(n1)c1ccccc1,5.68935639
5941,DUXPET,C31 H27 Cl1 N4 O1 S1,CN1CCC(=O)C2(C1)C(C1CSCN1C12c2ccccc2c2nc3ccccc3nc12)c1ccc(Cl)cc1,5.9018773
5942,DUXSAS,C22 H10 F4,Fc1c(F)c(F)c2cc3c4ccccc4c4ccccc4c3cc2c1F,5.81071916
5943,DUXSEU,C16 H10 N4,N#CC(=NN=C(C#N)c1ccccc1)c1ccccc1,5.7394253299999995
5944,DUXVIC,C17 H19 N3 O4 S1,Cc1ccc(cc1)S(=O)NC(CC(=O)C(=[N+]=[N-])C(=O)OCC=C)C=C,6.80692797
5945,DUXXOJ01,C11 H14 N4 O1 S1,CC(=NO)C(C)=NNC(=S)Nc1ccccc1,6.18351514
5946,DUXXUR,C23 H19 N3 S8,Cc1ccnc(c1)c1cc(CSC2=C(SCCC#N)SC(S2)=C2SC3=C(SCCS3)S2)ccn1,5.1100259999999995
5947,DUXYAW01,C15 H20 O4,CC(CCC=C(C)C)C1=C(O)C(=O)C(=C(O)C1=O)C,5.412072370000001
5948,DUXYEB,C11 H15 N3 O1 S1,CN(C)C(=S)NN=C(C)c1ccccc1O,6.097527159999999
5949,DUXYIG,C16 H8 F2 N2 O2,Fc1ccc2NC3=C(Nc4ccc(F)cc4C3=O)C(=O)c2c1,5.26077707
5950,DUXYOM,C16 H8 Cl2 N2 O2,Clc1ccc2NC3=C(Nc4ccc(Cl)cc4C3=O)C(=O)c2c1,5.23683105
5951,DUYDEH,C20 H13 N1 O2 S1,CC1=C(Sc2ccc3ccccc3n2)C(=O)c2ccccc2C1=O,5.4202357899999996
5952,DUYGIO,C20 H26 N2 O2,C[N+](C)([O-])CCCNC(=O)CC(c1ccccc1)c1ccccc1,7.50843748
5953,DUYKIS,C25 H20 F1 N1 O1,Fc1ccc(cc1)C1Nc2ccc3cc4ccccc4cc3c2C2OCCC12,5.41724253
5954,DUYLIT,C17 H17 N3 S1,CNc1ccccc1C1=C(NC(=S)N1C)c1ccccc1,5.94432706
5955,DUYLOB,C36 H40 N2 O4,COc1cc(C=Nc2ccccc2c2ccccc2N=Cc2cc(OC)cc(c2O)C(C)(C)C)c(O)c(c1)C(C)(C)C,5.85833909
5956,DUYLOZ,C18 H15 N3 O1 S1,CN1C(=O)C2(N(C)C(=S)N=C2c2ccccc2)c2ccccc12,5.561190760000001
5957,DUYMEQ,C24 H19 N3,CN(C)c1ccccc1c1ccccc1c1ccccc1C=C(C#N)C#N,5.29587976
5958,DUYMIU,C20 H19 N3 O2,CN(C)c1ccccc1C1=C(C(=O)N(C)N=C1)c1ccccc1C=O,6.24501286
5959,DUYMOA,C23 H19 N5 O1,CN(C)c1ccccc1C1=C(C(=O)N(C)N=C1)c1ccccc1C=C(C#N)C#N,5.1296181999999995
5960,DUYMOZ,C23 H39 N1 O2,CN=C1C(=C(C(=O)OC(C)(C)C)C(=C1C(C)(C)C)C(C)(C)C)C(C)(C)C,6.19630449
5961,DUYTUO,C30 H42 N4,CC(C)c1cccc(C(C)C)c1N=C([N-]c1c(cccc1C(C)C)C(C)C)C1=[N+](C)C=CN1C,5.92854446
5962,DUYVOI,C21 H16 N2 O1 S1,CCOC1=C2N=C3C=CC=CC3=C2N(c2ccccc2)C2=C1SC=C2,4.73151563
5963,DUYYUS,C16 H24 O4,COC1=C(C(=O)C(=O)C(=C1OC)C(C)(C)C)C(C)(C)C,5.86786307
5964,DUYZAZ,C14 H20 O2,CC(C)(C)C1=CC=C(C(=O)C1=O)C(C)(C)C,5.81017493
5965,DUYZOO,C30 H38 N4,Cc1ccc(cc1)N=C([N-]c1ccc(C)cc1)C1=[N+](C=CN1C1CCCCC1)C1CCCCC1,5.563911900000001
5966,DUZCOR,C21 H18 O1 S3,CCCCSC1=C(c2ccccc2S1)C1=C(Sc2ccccc12)C=O,5.85480161
5967,DUZFAI,C25 H16 F6 N2,FC(F)(F)C(Nc1cccc2ccccc12)=CC(=Nc1cccc2ccccc12)C(F)(F)F,5.7130303
5968,DUZGEM,C28 H32 O2 S2,CCCCCCC(=O)C1=Cc2c(S1)ccc1c2ccc2SC(=Cc12)C(=O)CCCCCC,5.87466591
5969,DUZLEQ,C26 H25 N3 O1 S1,CSC1=NC2=C(C(C3=C(N2)C(CCC3)=Cc2ccccc2)c2ccccc2)C(=O)N1C,6.0531726
5970,DUZNOE,C15 H18 N2 O4,COc1cc(cc(OC)c1OC)C=C1N=C(C)N(C)C1=O,5.54513604
5971,DUZROG,C13 H12 N4 O1,CN1N=C(N)C2=C1C=C(NC2=O)c1ccccc1,5.9451434
5972,DUZSID,C6 H8 N14,NC1=NN(C(=N1)N)c1nnc(nn1)N1N=C(N)N=C1N,4.614506669999999
5973,DUZTOI,C22 H18 B1 N1 O3,O=C1O[B-]2(Oc3ccccc3C=[N+]2C1Cc1ccccc1)c1ccccc1,5.96119812
5974,DUZTUO,C20 H16 B1 N1 O3 S1,O=C1O[B-]2(Oc3ccccc3C=[N+]2C1Cc1ccccc1)C1=CSC=C1,5.585681
5975,DUZVAW,C22 H17 B1 F1 N1 O3,Fc1ccc(cc1)[B-]12OC(=O)C(Cc3ccccc3)[N+]1=Cc1ccccc1O2,6.02187951
5976,DUZVEA,C23 H20 B1 N1 O4,COc1ccc(cc1)[B-]12OC(=O)C(Cc3ccccc3)[N+]1=Cc1ccccc1O2,5.44499815
5977,DUZVIE,C22 H24 F1 N1 O2,CCCCCCCCNc1ccc(F)c2C(=O)c3ccccc3C(=O)c12,5.03328989
5978,DUZVIF,C12 H16 Cl1 N1 O3,CCC(CO)(CO)[NH+]=Cc1cc(Cl)ccc1[O-],5.39737822
5979,DUZVIG,C36 H28 Cl2 F6 O6 S2,CCCCc1ccc2c(c1)c1c(Cl)c(OS(=O)(=O)C(F)(F)F)ccc1c1c3ccc(OS(=O)(=O)C(F)(F)F)c(Cl)c3c3cc(CCCC)ccc3c21,5.69180541
5980,DUZVOK,C24 H30 N2 O2,CCCCCNc1ccc(NCCCCC)c2C(=O)c3ccccc3C(=O)c12,4.22864924
5981,DUZVUQ,C30 H42 N2 O2,CCCCCCCCNc1ccc(NCCCCCCCC)c2C(=O)c3ccccc3C(=O)c12,4.23545208
5982,DUZWAX,C22 H9 F16 N1 O2,Fc1ccc(NCC(F)(F)C(F)(F)C(F)(F)C(F)(F)C(F)(F)C(F)(F)C(F)(F)F)c2C(=O)c3ccccc3C(=O)c12,5.21070812
5983,DUZWON,C20 H26 O4,CC(C)C1=C(O)C(=O)C2=C(C3CC4C(C)(C)CCCC24CO3)C1=O,6.148140340000001
5984,EABPIG,C44 H52 O4,CC(C)(C)c1cc2CC3=CC(=CC4(Cc5cc(cc(CC6=CC(=CC7(Cc(c1)c2O7)C6=O)C(C)(C)C)c5O4)C(C)(C)C)C3=O)C(C)(C)C,5.90840803
5985,EACBUT,C18 H30 N2 O4,CCOC(=O)C1=C(N(CC)CC)C(=C1N(CC)CC)C(=O)OCC,6.0727648
5986,EAFMUT,C28 H22,Cc1ccc2cc3ccc(C)c(c4ccccc4)c3cc2c1c1ccccc1,5.402004159999999
5987,EAFNAA,C30 H26,Cc1ccccc1c1c(C)ccc2cc3ccc(C)c(c4ccccc4C)c3cc12,5.56255133
5988,EANAPQ10,C14 H15 N1 O2,CCN(CC)C1=CC(=O)C(=O)c2ccccc12,5.4297597699999995
5989,EBADIW,C56 H42,C1Cc2ccc3C(=C(Cc4ccccc4)c4ccc1c2c34)C(C(c1ccccc1)C1=C(Cc2ccccc2)c2ccc3CCc4ccc1c2c34)c1ccccc1,5.65615849
5991,EBALIE,C32 H28 N4,CC1=Nc2ccccc2NC(=CC(=Nc2ccccc2NC(=C1)c1ccccc1)C)c1ccccc1,5.234109910000001
5992,EBANTH,C16 H13 Br1,CCc1c2ccccc2c(Br)c2ccccc12,4.95437687
5993,EBAPIG,C35 H21 F5 O1,OC1(c2c(F)c(F)c(F)c(F)c2F)C(=C(c2ccccc2)C(=C1c1ccccc1)c1ccccc1)c1ccccc1,5.746500300000001
5994,EBAPUU,C33 H32 Cl1 N5 O1,CCN1CC(=Cc2ccc(C)cc2)C2=C(C1)C(N1C(=N2)N(N=C1C(C)=O)c1ccc(Cl)cc1)c1ccc(C)cc1,5.3598265199999995
5995,EBAQAZ,C28 H29 N3 O1,CCN(CC)C(=O)C(c1ccccc1)=C1Nc2ccc(C)cc2C1=Nc1ccc(C)cc1,5.12444803
5996,EBASAB,C34 H30 N2 O4,CC(C)(C)c1ccccc1N1C(=O)c2ccc3C(=O)N(C(=O)c4ccc(C1=O)c2c34)c1ccccc1C(C)(C)C,5.496427659999999
5997,EBASIM,C25 H19 N1 O2,Cc1cccc2ccc([nH+]c12)C(C(=O)c1ccccc1)=C([O-])c1ccccc1,5.60010304
5998,EBATEG,C21 H20 N2 O5,COC(=O)C1=CC(=C(C=Nc2ccc(OC)cc2)N1c1ccc(OC)cc1)O,5.92310218
5999,EBAYOV,C22 H20 O2 S8,CSC1=C2SCCOc3cccc4c(OCCSC5=C(SC)SC(=C(S1)S2)S5)cccc34,5.74241858
6000,EBEBEU,C18 H14 N4 O1,Oc1ccc(cc1C=Nc1ccccn1)N=Nc1ccccc1,6.09779927
6001,EBECOF,C22 H18 N4 S2,Nc1cc(ccc1N=CC1=CC=CS1)c1ccc(N=CC2=CC=CS2)c(N)c1,5.1239038
6002,EBEQOS,C12 H14 Cl1 N5 S1,Clc1ccc(NC(=S)NCCCN2C=CN=C2)nc1,6.20501213
6003,EBEQUY,C11 H10 Cl1 N3 O1 S1,Clc1ccc(NC(=S)NCC2=CC=CO2)nc1,6.217257259999999
6004,EBERAE,C13 H13 N3 O5,COC(=O)N1C=CC=C1C=C1C(=O)N(C)N=C1C(=O)OC,5.357921709999999
6005,EBERAF,C12 H12 Cl1 N3 S2,Clc1ccc(NC(=S)NCCC2=CC=CS2)nc1,6.22433221
6006,EBERIN,C12 H12 Br1 N3 S2,Brc1ccc(NC(=S)NCCC2=CC=CS2)nc1,6.19167856
6007,EBETEL,C13 H18 Br1 N3 S1,Brc1ccc(NC(=S)NCC2CCCCC2)nc1,6.15439896
6008,EBEVAJ,C15 H23 Br1 N4 S1,CC1CCCCN1CCCNC(=S)Nc1ccc(Br)cn1,6.1399769200000005
6009,EBEVIS,C18 H14 N2 O1,O1C(=CC=C1C=Nc1ccccc1)C=Nc1ccccc1,5.83357672
6010,EBEVOY,C24 H8 F10 N2 O2,Fc1c(F)c(F)c(N=CC2=CC=C(O2)C=CC2=CC=C(O2)C=Nc2c(F)c(F)c(F)c(F)c2F)c(F)c1F,5.123903800000001
6011,EBEVUE,C18 H4 F10 N2 O1,Fc1c(F)c(F)c(N=CC2=CC=C(O2)C=Nc2c(F)c(F)c(F)c(F)c2F)c(F)c1F,5.802011520000001
6012,EBEXUE,C23 H26 N4,CN1CCN(C)C21C(=NN=C(c1ccccc1C)C12CC1)c1ccccc1,6.72284479
6013,EBEXUH,C46 H42 N4 O2,CCCCOc1ccc(cc1)C=C(C#N)c1ccc(cc1)N=Cc1ccc(cc1)C=Nc1ccc(cc1)C(=Cc1ccc(OCCCC)cc1)C#N,5.142407550000001
6014,EBIBIA,C30 H30 N2 O10,COc1c(C)c(O)c2C(=O)C3N(C)C(C4=CC5=C(C(COC(=O)C(C)=CC)N4C3=O)C(=O)C(=C(C)C5=O)OC)c2c1O,4.996554530000001
6015,EBIBOG,C17 H18 N2 O4,CNC1=C(C)C(=O)c2ccnc(COC(=O)C(C)=CC)c2C1=O,5.15465267
6016,EBIGEB,C30 H20,c1ccc(cc1)C#CC(c1ccccc1)=C(C#Cc1ccccc1)c1ccccc1,5.81180762
6017,EBIGUR,C28 H28 N2 O6,CC(C)(C)OC(=O)N1C(=O)C2=C(N(C(=O)OC(C)(C)C)C(=O)C2=C1c1ccccc1)c1ccccc1,4.86539565
6018,EBIHUV,C30 H27 Br1 N2 O2,CN1C(=O)C2(C(C(C3CCCN23)c2ccccc2)C(=O)C=Cc2ccccc2)c2cc(Br)ccc12,6.2599791300000005
6019,EBILOT,C27 H25 N1 O6,COc1ccc(cc1)C1=NOC2(Cc3ccccc3C2=O)C1c1cc(OC)c(OC)c(OC)c1,6.34106905
6020,EBIZAT,C18 H9 O1 P1 S2,O=P1(C#C)C2=C(Sc3ccccc23)C2=C1c1ccccc1S2,5.47384222
6021,EBOBON,C20 H10 N2 S6,S1C=CC=C1C1=CC=C(S1)C1=NC2=C(S1)N=C(S2)C1=CC=C(S1)C1=CC=CS1,4.93587314
6022,EBODOR,C14 H13 N3,N#CC(=Cc1ccc(cc1)N1CCCC1)C#N,5.39819457
6023,EBODUX,C18 H14 N2 O2,COc1ccc(cc1)C(c1ccc(OC)cc1)=C(C#N)C#N,5.9587491
6024,EBOFEG,C32 H28 N4,CN(C)c1ccc(cc1)C1(c2ccc(cc2)N(C)C)c2ccccc2c2ccccc2C1(C#N)C#N,5.82269217
6025,EBOGIL,C17 H24 O4,CCOC(=O)C1=C(C(=O)C(=O)C(=C1)C(C)(C)C)C(C)(C)C,5.80881437
6026,EBOHIP,C25 H25 N3,CCCCCCc1cc2nc3ccccc3nc2c2c3ccccc3N(C)c12,5.2215926800000005
6027,EBOHOV,C26 H27 N3,CCCCCCc1cc2nc3ccccc3nc2c2c3ccccc3N(CC)c12,5.22676284
6028,EBOHUB,C26 H19 N1 O1,C=C(C=O)C(c1ccccc1)C1=C2C=CC=CN2C(=C1)c1ccc(cc1)C#C,5.75575217
6029,EBOJIR,C32 H23 N3,c1ccc2c(c1)N(c1ccc(C=Cc3ccc(cc3)N=Cc3cccnc3)cc1)c1ccccc21,5.44880775
6030,EBOLAL,C22 H25 N1 O5,CCOC(=O)C(=C)CC(Nc1ccc(OC)cc1)c1ccc(cc1)C(=O)OC,5.99058642
6031,EBONUH,C14 H12 Br2 O4 S1,CCOC(=O)C1=CC2=C(Br)SC(=C2C=C1C(=O)OCC)Br,5.56608882
6032,EBOPAN,C23 H18 N2 O2,COc1ccc(cc1)C=C1N=C(N(c2ccccc2)C1=O)c1ccccc1,5.39710612
6033,EBOREV,C37 H33 N3 O1,CCN(CC)c1ccc(C=Nc2ccc(C=Cc3ccc(cc3)N3c4ccccc4c4ccccc34)cc2)c(O)c1,5.35547269
6034,EBORIZ,C18 H21 N3 O1 S1,CCN(CC)C(=S)N=C(Nc1ccccc1O)c1ccccc1,5.78432412
6035,EBOSEW,C32 H23 N3,c1ccc(C=Nc2ccc(C=Cc3ccc(cc3)N3c4ccccc4c4ccccc34)cc2)nc1,5.5209179200000005
6036,EBOTAT,C33 H24 N2,c1ccc(cc1)C=Nc1ccc(C=Cc2ccc(cc2)N2c3ccccc3c3ccccc23)cc1,5.35220733
6037,EBTNIC,C24 H23 N3 O4 S1,CCOC(=O)C1=C(NC(=O)c2ccccc2)NC(=S)C(=C1N(C)C)C(=O)c1ccccc1,5.22322536
6038,EBUDIQ,C22 H8 O4 S4,O=C1C2=C(SC(S2)=C2SC3=C(S2)C(=O)c2ccccc2C3=O)C(=O)c2ccccc12,3.8811598499999995
6039,EBUJIX,C13 H9 Cl1 N4 S1,Clc1ccccc1N1C(=S)NN=C1c1ccccn1,5.93507519
6041,EBUNAT,C29 H27 N1 O4,CCOC(=O)C1=C(C)NC(=C(C1c1ccc2ccc3cccc4ccc1c2c34)C(=O)OCC)C,5.46785571
6042,EBUSEC,C8 H15 N1 O3,CC(=C)C(=O)OCC[N+](C)(C)[O-],6.94407335
6043,EBUVAY,C18 H26 O2 S4,CCCCCC1=C(CCCCC)SC(S1)=C1SC(=C(S1)C(O)=O)C,4.88662053
6045,EBUWOQ,C22 H17 N1 O2,Oc1ccccc1C1=NC(Cc2ccccc2C1=O)c1ccccc1,6.48964322
6046,EBUXEH,C25 H19 N3,CN(C)c1ccc(cc1)C#Cc1ccc2cc(ccc2c1)C(C)=C(C#N)C#N,4.60253367
6047,EBUXOR,C20 H18 Br1 N3 O1,CN(C)c1ccc(cc1)N=Nc1ccc2cc(ccc2c1Br)C(C)=O,4.89206281
6048,EBUXUV01,C42 H40 N2 O2,CC(C)(C)c1ccc(O)c(C=Nc2ccc3ccccc3c2c2c(ccc3ccccc23)N=Cc2cc(ccc2O)C(C)(C)C)c1,5.65289313
6049,EBUXUX,C23 H19 N5,CN(C)c1ccc(cc1)N=Nc1ccc2cc(ccc2c1)C(C)=C(C#N)C#N,4.75165205
6050,EBUYAC,C16 H13 N1 O4 S1,Cc1ccc(cc1)S(=O)(=O)N1C=C(C)C2=C1C(=O)C(=O)C=C2,5.67330167
6051,EBUYEG,C23 H19 N1 O4 S2,Cc1ccc(cc1)S(=O)(=O)N1C=C(C)C2=C1C(=O)C(=O)C=C2SCc1ccccc1,5.524727500000001
6052,EBUZOR,C30 H14,c1ccc2c(c1)c1ccc3c4cc5c(cc4c3c21)c1ccc2c3ccccc3c2c51,4.88281093
6053,EBUZUX,C19 H23 N1 O3 S1,COc1cc(C)cc2C(C[S+](=Nc12)([O-])c1ccccc1)C(C)CO,6.1095001700000005
6054,ECADUI,C18 H21 N1 O3,COc1cc(C)c2CN(C)CCC34C=CC(=O)CC3Oc1c24,6.54243331
6055,ECAGEX,C30 H25 N1 O2 S1,CCN1c2ccc(cc2Sc2cc(ccc12)C(=O)c1ccc(C)cc1)C(=O)c1ccc(C)cc1,5.29397496
6056,ECAGIA,C16 H16 O4 S1,CCOC(=O)C1=C(S)C(=C2C=CC=CC=C12)C(=O)OCC,5.03519469
6057,ECAGIB,C15 H14 N2 S1,CN(C)c1ccc(cc1)C1=Nc2ccccc2S1,5.95602796
6058,ECAJAW,C22 H18 N2 O3 S1,CCOC(=O)C1=C(N)c2c(S1)nc1c(CCc3ccccc13)c2C1=CC=CO1,5.2800971599999995
6059,ECANUT,C15 H12 N2 O4,CN1C(=O)C=C(C)C2=C1C(=O)C1=C(C(=CC(=O)N1)C)C2=O,4.84008906
6060,ECAPUW,C33 H24 N2 S1,S1c2ccccc2N=C1c1ccc(C=Cc2ccc(cc2)N(c2ccccc2)c2ccccc2)cc1,5.01424192
6061,ECAREH,C15 H18 N2 O2,CC1=CNC(=C1C)C(O)=CC(=O)C1=C(C)C(=CN1)C,5.73262249
6062,ECARIL,C19 H24 I2 N2 O2,CCC1=C(I)NC(=C1CC)C(O)=CC(=O)C1=C(CC)C(=C(I)N1)CC,5.63302881
6063,ECAROQ,C28 H22 O6,COC(=O)c1ccc2ccc(OC)c(C#Cc3c(OC)ccc4ccc(OC(C)=O)cc34)c2c1,5.34295546
6064,ECARUW,C21 H16 Cl2 O7,COC(=O)C(c1cc(Cl)c(OC)c(Cl)c1)=C1OC(=O)C(=C1O)c1ccc(OC)cc1,5.33071033
6065,ECASUY,C24 H18 N2 S6,CCSC1=C(SCC)SC(S1)=C1SC(=C(S1)C#Cc1ccccn1)C#Cc1ccccn1,4.22103005
6066,ECAWOU,C15 H15 N3 S1,CCCSc1cccc2nnc3cccc(N)c3c12,5.57261955
6067,ECAXOY,C26 H8 F14 N2 O4 S2,FC(F)(F)C(F)(F)C(F)(F)CN1C(=O)c2c3SC=Cc3c3C(=O)N(CC(F)(F)C(F)(F)C(F)(F)F)C(=O)c4c5SC=Cc5c(C1=O)c2c34,4.22592809
6068,ECAYUF,C40 H24 S2,S1C=CC=C1C1=C2C(=C3c4ccccc4C(=C3C(=C2c2ccccc12)c1ccccc1)C1=CC=CS1)c1ccccc1,3.9230653799999997
6069,ECAZAM,C46 H32,Cc1ccc(cc1)C1=C2C(=C3c4ccccc4C(=C3C(=C2c2ccccc12)c1ccccc1)c1ccc(C)cc1)c1ccccc1,4.02184271
6070,ECAZEQ,C44 H28,c1ccc(cc1)C1=C2C(=C3c4ccccc4C(=C3C(=C2c2ccccc12)c1ccccc1)c1ccccc1)c1ccccc1,4.02401962
6072,ECEGEY,C17 H17 N3 O5,COC(=O)C1=C(C)NC(=C(C1C1=CC2=NON=C2C=C1)C(=O)OC)C,5.90242153
6073,ECEGIC,C17 H17 N3 O6,COC(=O)C1=C(C)NC(=C(C1C1=CC2=NO[N+](=C2C=C1)[O-])C(=O)OC)C,5.67819972
6074,ECEGUP,C26 H15 F1 N4 O1 S1,COc1ccc(cc1)N1C(=CC=C1c1ccc(F)cc1)C1=CC=C(S1)C(C#N)=C(C#N)C#N,4.16388614
6075,ECEHAW01,C26 H16 N4 O1 S1,COc1ccc(cc1)N1C(=CC=C1c1ccccc1)C1=CC=C(S1)C(C#N)=C(C#N)C#N,4.10619801
6076,ECELUV,C30 H19 N3 O1,CC1=NN(c2ccccc2)c2nc(c3ccccc3)c3C(=O)c4cccc5cccc(c45)c3c12,5.2771039
6077,ECENAD,C22 H10 S4,S1c2ccccc2C2=C1c1cc3SC4=C(Sc5ccccc45)c3cc1S2,5.25261365
6078,ECEQUY,C20 H20 N2 O3,CC(C)C(N1C(=O)c2ccccc2C1=O)C(=O)C1=CC=CC1=C(C)N,5.59574922
6079,ECERAF,C18 H16 N2 O3,CC(N1C(=O)c2ccccc2C1=O)C(=O)C1=CC=CC1=C(C)N,5.7032342
6080,ECETUE,C21 H20 N2 O8,COc1ccc2C=C(N(C)C(=O)C3=NOC4C(O)C(O)C=CC4=C3)C(=O)Oc2c1OC,6.0888195199999995
6081,ECEZUK,C24 H16 N2,C1=CN2C(=C3C=CC=CC3=C2C2=C3C=CC=CC3=C3C=CC=CN23)C=C1,5.20907544
6082,ECIBAW,C24 H18 N1 P1,c1ccc(cc1)P(c1ccccc1)C1=C2C=CC=CC2=C2C=CC=CN12,5.82459697
6083,ECIGII,C30 H19 Cl1,Clc1ccc(cc1)c1c2ccccc2c(c2ccccc2)c2cc3ccccc3cc12,4.427836579999999
6084,ECIGOO,C28 H24,CC(C)Cc1c2ccccc2c(c2ccccc2)c2cc3ccccc3cc12,4.4398095799999995