,ID,formula,smiles,HOMO_LUMO_gap
8895,GEDBAV,C23 H24 N2 O2,CC(=NCC(C)(C)[NH+]=Cc1c([O-])ccc2ccccc12)c1ccccc1O,5.727724439999999
8896,GEDBIC,C42 H32 O2 S1,CC1(C)c2ccccc2c2ccc(cc12)c1ccc2c3ccc(cc3S(=O)(=O)c2c1)c1ccc2c3ccccc3C(C)(C)c2c1,5.51574775
8897,GEDBOI,C28 H24 O6 S1,COc1ccc(cc1OC)c1ccc2c3ccc(cc3S(=O)(=O)c2c1)c1ccc(OC)c(OC)c1,5.58867426
8898,GEDCEY,C15 H9 Br1 N2 O1,Brc1ccc(cc1)C=CC(=O)c1cc(ccn1)C#N,5.941061700000001
8900,GEDNEL,C13 H12 F3 N3 O1 S1,FC(F)(F)c1ccc(cc1)C1=N[N+]2(CCOCC2)C(=S)[N-]1,6.00500846
8901,GEDNUA,C26 H22 N4 S2,N(N=C(SSC(=NNc1ccccc1)c1ccccc1)c1ccccc1)c1ccccc1,5.4460866
8902,GEDPUD,C26 H18 O4,COC(=O)c1ccc(cc1)C#Cc1ccc(cc1)C#Cc1ccc(cc1)C(=O)OC,5.71384663
8903,GEDQOY,C26 H16 F2 O4,COC(=O)c1ccc(cc1)C#Cc1cc(F)c(cc1F)C#Cc1ccc(cc1)C(=O)OC,5.93262617
8904,GEDQUE,C26 H14 F4 O4,COC(=O)c1ccc(cc1)C#Cc1c(F)c(F)c(C#Cc2ccc(cc2)C(=O)OC)c(F)c1F,5.62350483
8905,GEDROZ,C40 H18 F6 N2 O4,Fc1cc(F)c(COC(=O)c2cc(C#Cc3ccc(cc3)C#N)c(cc2C#Cc2ccc(cc2)C#N)C(=O)OCc2c(F)cc(F)cc2F)c(F)c1,5.3143835
8906,GEDRUF,C42 H24 F6 O8,COC(=O)c1ccc(cc1)C#Cc1cc(C(=O)OCc2c(F)cc(F)cc2F)c(cc1C(=O)OCc1c(F)cc(F)cc1F)C#Cc1ccc(cc1)C(=O)OC,5.55493215
8907,GEDSIU,C38 H20 F6 O4,Fc1cc(F)c(COC(=O)c2cc(C#Cc3ccccc3)c(cc2C#Cc2ccccc2)C(=O)OCc2c(F)cc(F)cc2F)c(F)c1,5.63194036
8908,GEDSOA,C42 H30 F6 N2 O4,CN(C)c1ccc(cc1)C#Cc1cc(C(=O)OCc2c(F)cc(F)cc2F)c(cc1C(=O)OCc1c(F)cc(F)cc1F)C#Cc1ccc(cc1)N(C)C,5.28635577
8909,GEDTER,C40 H24 F6 O6,COc1ccc(cc1)C#Cc1cc(C(=O)OCc2c(F)cc(F)cc2F)c(cc1C(=O)OCc1c(F)cc(F)cc1F)C#Cc1ccc(OC)cc1,5.86867941
8910,GEDWAN,C14 H25 P1 S3,CSC(=S)P(=S)(C1CCCCC1)C1CCCCC1,5.59302808
8911,GEDZEU,C22 H28 O7,COC1OC2=C(CC1O)C(=O)C1=C(C2=O)C2(C)CCC(=C(C)C2C(O)C1OC)C,5.40227628
8912,GEDZIY,C21 H26 O6,COC1OC2=C(CC1O)C(=O)C(=C1C2=CC(O)C2C(=C(C)CCC12C)C)O,6.00990651
8913,GEDZOH,C20 H19 N1 O4,CC(C)(C)OC(=O)Nc1ccccc1C1=Cc2ccccc2OC1=O,6.048002439999999
8914,GEFBAU,C18 H28 S6,CC(C)SC1=C2C(=S=C(SC(C)C)C2=C(SC(C)C)S1)SC(C)C,4.524709100000002
8915,GEFBAV,C12 H4 O4,O=C1Cc2c1c1C(=O)Cc1c1C(=O)C(=O)c21,6.22650912
8916,GEFBAW,C25 H23 N3 O3,COc1ccc(cc1OC)c1c2C(=O)CCCc2nc2N(N=C(C)c12)c1ccccc1,6.08745895
8917,GEFBOL,C16 H13 N1 O2,CN1C(=O)C(=Cc2ccccc2O)c2ccccc12,5.6700363000000005
8918,GEFHUX,C20 H19 Br1 N4,CCN(CC)c1ccc(C=C(C#N)C2=Nc3ccccc3N2)c(Br)c1,5.12009421
8919,GEFJAF,C20 H19 N3 O1,CCN(CC)c1ccc2C=C(C=O)C3=Nc4ccccc4N3c2c1,5.29724032
8920,GEFJEH,C28 H27 N1 O2,CN1CC(c2ccc(C)cc2)C2(CCCCC2=O)C21C(=O)c1cccc3cccc2c13,5.87657071
8921,GEFMIP,C32 H29 N1 O1,CC(=C)C(C(=O)CC(Nc1ccccc1)c1ccccc1)=C(c1ccccc1)c1ccccc1,5.8697678699999996
8922,GEFNEL,C22 H21 N3 O2,COc1ccc(cc1)C=Cc1nc(C)nc(C=Cc2ccc(OC)cc2)n1,5.91385031
8923,GEFNEM,C18 H13 N3 S1,N1C(N2c3ccccc3N=C2c2ccccc12)C1=CC=CS1,6.103241550000001
8924,GEFYOH,C49 H39 N3,CC(C)(C)c1ccc(cc1)N1C(=Nc2c3ccccc3c3ccccc3c12)c1ccc(cc1)c1ccc(cc1)N(c1ccccc1)c1ccccc1,5.71629566
8925,GEFZUO,C17 H20 N2,CCN(CC)c1ccc(C=Cc2ccncc2)cc1,5.67248532
8926,GEGFIK,C22 H16 F4 N4,Cc1cc(C)c(N=NC2=NN(c3ccccc3)c3c(F)c(F)c(F)c(F)c23)c(C)c1,5.676839149999998
8927,GEGFON,C30 H22 O2 S1,O=C(C=C(SC(=CC(=O)c1ccccc1)c1ccccc1)c1ccccc1)c1ccccc1,5.80446055
8928,GEGFOO,C12 H13 B1 F2 N2 S1,CSC1=C2C=CC(=[N+]2[B-](F)(F)N2C(=CC=C12)C)C,4.92117899
8929,GEGFOP,C36 H29 N1 O4,CCCCN1C(=O)c2c(C1=O)c(c1ccc(OC)cc1)c1c3cccc4cccc(c34)c1c2c1ccc(OC)cc1,5.45016831
8930,GEGFUU,C10 H9 B1 F2 N2 S1,CSC1=C2C=CC=[N+]2[B-](F)(F)N2C=CC=C12,5.10295104
8931,GEGGAB,C14 H17 B1 F2 N2 S1,CCC1=CC=C2N1[B-](F)(F)[N+]1=C(CC)C=CC1=C2SC,4.91029444
8932,GEGGEF01,C15 H12 B1 F2 N3,F[B-]1(F)N2C=CC=C2C(=C2C=CC=[N+]12)Nc1ccccc1,5.508672789999999
8933,GEGJOT,C46 H44 N2 O2 S4,CCCCCCN1C(=O)C2=C(N(CCCCCC)C(=O)C2=C1c1ccc(cc1)C1=CC=C(S1)C1=CC=CS1)c1ccc(cc1)C1=CC=C(S1)C1=CC=CS1,4.236812649999999
8934,GEGKOU,C27 H21 N1,C1CC2=C(c3ccccc3)c3ccccc3N2C1c1cccc2ccccc12,5.888543729999999
8935,GEGLAF,C48 H42 S6,Cc1ccccc1Sc1c(Sc2ccccc2C)c(Sc2ccccc2C)c(Sc2ccccc2C)c(Sc2ccccc2C)c1Sc1ccccc1C,5.50350263
8936,GEGMAJ,C19 H14 N2 O2 S1,O=C(C1=CC=CS1)C1=[N+]([O-])N(Cc2ccccc2)c2ccccc12,6.062152360000001
8937,GEGMUD,C41 H36 B1 F2 N3 O6,CCOC(=O)C=CC1=C(N2C(=C1c1ccc(OC)cc1)N=C1[N+](=C(C=C1c1ccc(OC)cc1)c1ccc(OC)cc1)[B-]2(F)F)c1ccc(OC)cc1,3.85367636
8938,GEGPAL,C40 H36 O2,C1CCCOc2ccccc2c2c3CCCc3c3ccc4c(c5CCCc5c5ccc2c3c45)c2ccccc2OCC1,5.2357426
8939,GEGPUE,C42 H28,c1ccc(cc1)C1C(c2ccccc2)C(C1=C1c2ccccc2c2ccccc12)=C1c2ccccc2c2ccccc12,4.471374790000001
8940,GEGQIT,C42 H28,c1ccc(cc1)C=C1C(=C(c2ccccc2)C21c1ccccc1c1ccccc21)C1c2ccccc2c2ccccc12,5.65724695
8941,GEGQUF,C42 H24,c1ccc(cc1)c1c2cccc3c4ccccc4c(c23)c2c(c3ccccc3)c3cccc4c5ccccc5c(c34)c12,3.73693951
8942,GEGRER,C42 H24,c1ccc(cc1)C#Cc1ccc(C#Cc2ccccc2)c2c(ccc(C#Cc3ccccc3)c12)C#Cc1ccccc1,4.76852311
8943,GEGRUI,C39 H32 B1 F2 N3 O4,CCOC(=O)C=CC1=C(N2C(=C1c1ccccc1)N=C1[N+](=C(C=C1c1ccccc1)c1ccc(OC)cc1)[B-]2(F)F)c1ccc(OC)cc1,3.6735369800000006
8944,GEGSAO,C28 H24 F6 O4,COc1ccc(cc1)C(=Cc1cc(OC)c(cc1OC)C=C(c1ccc(OC)cc1)C(F)(F)F)C(F)(F)F,5.77343956
8945,GEGXAS,C28 H20 O1,Cc1ccc2c3ccc(C)cc3C(c2c1)=C1c2ccccc2Oc2ccccc12,4.29395656
8946,GEGXIA,C30 H18 O1,O1c2ccccc2C(c2ccccc12)=C1c2ccccc2c2cc3ccccc3cc12,5.3497583
8947,GEGYEX,C18 H12 I2 S2,CC1=C(C)SC(S1)=C1c2cc(I)ccc2c2ccc(I)cc12,5.40690221
8948,GEGYOH,C18 H14 S3,CC1=C(C)SC(S1)=C1c2ccccc2Sc2ccccc12,5.743507040000001
8949,GEGYUN,C18 H14 O2 S3,CC1=C(C)SC(S1)=C1c2ccccc2S(=O)(=O)c2ccccc12,5.52472751
8950,GEGZIB,C15 H12 N4 S2,NC1=NN=C(S1)c1ccccc1NC(=S)c1ccccc1,5.82731811
8951,GEHDOP,C34 H40 N2 O4 S2,CCCCCCCCN1C(=O)C2=C(SC=C2)c2cc3C(=O)N(CCCCCCCC)C(=O)C4=C(SC=C4)c3cc2C1=O,5.402276280000001
8952,GEHMEL,C28 H28 N2 O1 S1,O=C(C1N(C2CCCCC2)C(N(C1=S)c1ccccc1)c1ccccc1)c1ccccc1,5.15356421
8953,GEHMEM,C4 H6 N10,CN1N=NN=C1N=NC1=NN=NN1C,6.717130399999999
8954,GEHMOV,C28 H28 N2 O1 S1,OC(c1ccccc1)=C1N(C2CCCCC2)C(SC1=Nc1ccccc1)c1ccccc1,5.78133087
8955,GEHSES,C8 H4 I1 N1 O2,Ic1ccc2NC(=O)C(=O)c2c1,5.916027230000001
8956,GEHWEW,C25 H24 O5,CC(C)CC(=O)c1c(O)c2c(OC(=O)C=C2c2ccccc2)c2C=CC(C)(C)Oc12,6.09616659
8957,GEHWUL,C26 H42 N6,CCN(CC)C1=NC(=C2C=C3C(=C(N=C3N(CC)CC)N(CC)CC)C=C12)N(CC)CC,3.64414868
8958,GEHWUN,C18 H16 O5,COc1ccc2c(c1)C(=O)C(=O)c1c(C)c(OC)c(OC)cc21,5.3241796
8959,GEHXAU,C17 H13 I1 O5,COc1ccc2c(c1)C(=O)C(=O)c1cc(OC)c(OC)c(I)c21,5.27383854
8960,GEHXEY,C30 H20 N4,c1ccc2nc(ccc2c1)C=Nc1cccc2c(cccc12)N=Cc1ccc2ccccc2n1,5.51982946
8961,GEJCEG,C33 H42 B1 N1 O2,CC(C)c1cccc(C(C)C)c1[N+]1=C(C(C)(C)CC1(C)C)[B-]1(Oc2ccccc2O1)c1ccc(C)cc1,5.34622082
8962,GEJDAA,C18 H16 N2 O1,O=C1N=C(c2ccccc2)C2=C3N1C=CC=C3CCCC2,5.71439086
8963,GEJDIJ,C15 H11 F3 N2 O1 S1,FC(F)(F)c1cccc(NC(=S)NC(=O)c2ccccc2)c1,6.15358262
8964,GEJDOP,C15 H16 N2 O1,CC(=Nc1cccc(N)c1C)c1ccccc1O,6.16092969
8965,GEJGEK,C46 H40 N2 O4,COc1ccc(cc1)N(c1ccc(OC)cc1)c1ccc(cc1)c1ccccc1c1ccc(cc1)N(c1ccc(OC)cc1)c1ccc(OC)cc1,5.90323787
8966,GEJGOR,C24 H15 N3 O1 S2,[O-]C1=N[N+]2=C(c3ccccc3)C3=NSC(=C3C2(S1)c1ccccc1)c1ccccc1,5.32363537
8967,GEJQOE,C6 H14 N2 O2,C[N+](C)(C)NCCC(=O)[O-],5.25968861
8968,GEJSAS,C25 H23 N1 O6,COC(=O)C=C(N(Cc1ccccc1)CC1=C(Oc2ccccc2C1=O)C=C)C(=O)OC,5.89561869
8969,GEJSIA,C24 H18 N2 O3 S1,Cc1ccc(cc1)S(=O)(=O)N1C=C(C(=O)c2ccccc2)C2=C1Nc1ccccc21,5.69833614
8970,GEJVOJ,C28 H34 N2 O2,CCCCCCCCCCCCN1C(=O)C(c2ccccc12)=C1C(=O)Nc2ccccc12,5.0705694900000005
8971,GEJXIC,C12 H16,C1CCC#CCCCCC#CC1,5.5598301999999995
8972,GEJXUP,C33 H33 N3 S4,CCCCCCC1=C(SC=C1)C1=CC=C(S1)C1=CC=C(S1)C1=C(CCCCCC)C=C(S1)C(C#N)=C(C#N)C#N,3.83979854
8973,GEJZEB,C24 H16 N6,c1ccc(nc1)C1=NC(=C2C=CC=CN12)C1=C2C=CC=CN2C(=N1)c1ccccn1,5.31792098
8974,GEJZIF,C22 H19 N5 O2,COc1ccccc1NC(=O)N1N=C(NN=C1c1ccccc1)c1ccccc1,6.31875572
8975,GEKCEH,C30 H23 N1 O2 S1,CN1c2ccccc2C2=C(c3ccccc3C2=C1c1ccccc1)S(=O)(=O)c1ccc(C)cc1,5.37452066
8976,GEKHAG,C20 H20 O4 S1,COC1=CC(=O)C2(C)C3CC(C=C3)C2(C1=O)S(=O)c1ccc(C)cc1,6.513317119999998
8977,GEKPIW,C25 H23 N3 S3,CCCCC1=C(SC(=C1CCCC)C1=CC=C(S1)C(C#N)=C(C#N)C#N)C1=CC=CS1,4.2142272
8978,GEKPOC,C20 H16 S3,CC1=C(C)SC(S1)=CC=C1c2ccccc2Sc2ccccc12,5.1704352700000005
8979,GEKRIA,C34 H23 N3 O2,Oc1cc(ccc1C1=Nc2ccccc2O1)C1=NC(=C(N1c1ccccc1)c1ccccc1)c1ccccc1,5.83684209
8980,GEKROG,C20 H19 N3 O4,OCCN1C(=O)N2C(=O)N(CCO)C(=C2c2ccccc12)c1ccccc1,5.83820266
8981,GEKVAW,C22 H14 S2,S1c2ccccc2C2=C1C=C(S2)c1ccc(cc1)c1ccccc1,5.6586075199999994
8982,GEKVIC,C13 H12 O2,CC1=CC2=C(C=CC(=O)C=C2)C=C(C)O1,5.58649735
8983,GEKYAZ,C17 H13 N1 O4 S1,Cc1ccc(cc1)S(=O)(=O)NC1=CC(=O)c2ccccc2C1=O,6.102969440000001
8984,GELGEM,C20 H13 Cl2 N5,Clc1ccc(cc1)C1=CN2N=C(c3cccc(Cl)c3)C3=NC=CN3CC2=N1,5.207986979999999
8985,GELGUZ,C48 H40 N4,CCC1=C(CC)C2=C(c3ccccc3)C3=NC(=C(C4=CC=C(N4)C(=C4CCC(=N4)C(=C1N2)c1ccccc1)c1ccccc1)c1ccccc1)C=C3,4.06184345
8986,GELJEM,C48 H40 N4,CCC1=C(CC)C2=C(C3=CC=C(N3)C(=C3CCC(=N3)C(=C3NC(=C(c4ccccc4)C1=N2)C=C3)c1ccccc1)c1ccccc1)c1ccccc1,3.93449416
8987,GELKIU,C19 H16 Br1 N1 O1,Brc1ccc(cc1)C1Nc2ccccc2C2CC(=O)C=CC12,6.206644819999999
8988,GELKUG,C20 H19 N1 O1,Cc1cccc2NC(C3C=CC(=O)CC3c12)c1ccccc1,6.1383442399999995
8989,GELNOD,C15 H10 F4 N2 O1 S1,Fc1cccc(c1)C(=O)NC(=S)Nc1ccc(cc1)C(F)(F)F,6.04827456
8990,GELPIZ,C20 H16 O2,CC(=O)C(=Cc1c2ccccc2cc2ccccc12)C(C)=O,5.20608219
8991,GELPOF,C22 H16 O2,CC(=O)C(=Cc1ccc2ccc3cccc4ccc1c2c34)C(C)=O,5.10485583
8992,GELVIC,C14 H9 N1 O2,O=C1c2cccc[n+]2C(=C1c1ccccc1)[O-],3.9706853100000004
8993,GELWAY,C20 H12 N2 O1,O=C1c2ccccc2N(c2ccc(cc2)C#N)c2ccccc12,6.041743820000001
8994,GELWOJ,C28 H24 N2 O4 S2,COC(=O)C1=C(C#N)c2ccccc2C(SC)C2C(C#N)(c3ccccc3C=CSC)C12C(=O)OC,5.61425296
8995,GEMBAB,C15 H16 N4,CCC(=NNc1ccccc1)N=Nc1ccccc1,4.81995264
8996,GEMBUY,C17 H19 N1 O2,CC(=[NH+]C(CO)Cc1ccccc1)c1ccccc1[O-],5.63411728
8997,GEMDIL,C30 H42 O4,CC(C)(C)c1cc(c2ccc3c(C(=O)C(=CC3(OO)C(C)(C)C)C(C)(C)C)c2c1O)C(C)(C)C,5.85561795
8998,GEMFUZ,C30 H24 N6 O3,CC1=NN(c2ccccc2)C2=C1C1=C(OC3(O2)C(=NN(c2ccccc2)C3=O)C)N(N=C1C)c1ccccc1,6.17181425
8999,GEMQEX,C19 H17 N3 O3 S1,CCOC(=O)c1c(C)nc2SC(=C(N)c2c1c1ccc(OC)cc1)C#N,5.907047469999999
9000,GEMQIB,C21 H22 N4 O2 S1,CC(NNC(=O)CSc1ccc(C)cc1)=C1C(=NN(C1=O)c1ccccc1)C,6.06378504
9001,GEMWUQ,C19 H10 N2 O3,O=C1C2=C(C(=O)C3=C1c1ccccc1[N+](=C3)[O-])c1ccccc1N2,4.57749919
9002,GEMYIG,C18 H18 N2 O2,COc1cccc(C=[NH+]CCC2=CNc3ccccc23)c1[O-],5.398466679999999
9003,GEMYOO,C36 H31 N3 O4,COc1ccc(cc1)C1=CC(=C(N1)N=C1N=C(C=C1c1ccc(OC)cc1)c1ccc(OC)cc1)c1ccc(OC)cc1,3.6879590100000006
9004,GEMYUS,C18 H22 O3,CC12CCC3C(CCC43CC(=O)C=CC4=O)C1CCC2=O,6.59984933
9005,GENJIS,C19 H23 N1 O2,CN(C)CCCC1CC(=O)C=CC1(O)C#Cc1ccccc1,6.547603469999999
9006,GENJUH,C32 H26 O11,COc1cc(O)c2Oc3cc(C)cc(O)c3C(=O)OC(C(O)c2c1)c1cc(OC)cc2Oc3cc(C)cc(O)c3C(=O)c12,5.96337504
9007,GENPUL,C19 H12 O1 S1,O=CC1=CC=C(S1)C=C1c2ccccc2c2ccccc12,4.59300968
9008,GENRIB,C21 H21 N1 O4,CCN(CC)c1ccc2C=C(C(=O)Oc2c1)c1ccc(cc1)C(=O)OC,5.362819770000001
9009,GENTUP,C15 H14 N2 O1 S1,Cc1ccccc1NC(=S)NC(=O)c1ccccc1,5.98160667
9010,GENVUR,C26 H25 N1 O5,COc1ccc(cc1OC)C1C2=C(CCCC2=O)N(C2=C1C(=O)OC2)c1ccc(C)cc1,6.07494171
9011,GENWEE,C28 H18 N2 O2,O1c2ccccc2N=C1C(c1ccccc1)=C(c1ccccc1)C1=Nc2ccccc2O1,5.84174015
9012,GENXUT,C17 H13 Cl2 F1 O3,COc1ccc(C=CC(=O)c2cc(F)c(Cl)cc2Cl)cc1OC,5.89044852
9013,GENZEF,C5 H6 N4 O1,NNC(=O)c1cnccn1,6.79032903
9014,GENZUV,C35 H30 Cl1 N3 O4,COc1ccc(cc1)N1C(C2N(C)CC(c3ccc(Cl)cc3)C32N=C(OC3=O)c2ccccc2)C(C1=O)c1ccccc1,6.05616586
9015,GEOGIN,C21 H22 O5,CC1COC2C3=C(C4OC(=O)C5CCC6C1CCC26C45)C(=O)C=CC3=O,6.318211499999999
9016,GEPCOU01,C16 H12 O5,COc1cc(O)c2C(=O)c3ccc(C)cc3C(=O)c2c1O,5.71439086
9017,GEPFAL,C17 H13 Cl1 N2 O4,COC(=O)C(Nc1ccc(Cl)cc1)N1C(=O)c2ccccc2C1=O,5.418603109999999
9018,GEPFUD,C8 H7 N1 O4,OC(=O)C[n+]1ccccc1C(=O)[O-],5.6694920799999995
9019,GEPJIV,C25 H23 N3 O1,Cc1ccc(NC(c2ccccc2)=C2C(=NN(c3ccccc3)C2=O)C)c(C)c1,5.84582185
9020,GEPNIZ,C9 H9 Br2 N1 O2,OCC[NH+]=Cc1cc(Br)cc(Br)c1[O-],5.20308894
9021,GEPNOF,C18 H17 Cl1 O4,COc1cc(OC)c(C=CC(=O)c2ccc(Cl)cc2)cc1OC,5.50567953
9022,GEPPAS,C17 H19 N1 O3,COC(=O)C1=C2N(C)CCC2=C(C1)c1ccc(OC)cc1,6.037662109999999
9023,GEPPEW,C19 H19 N1 O3 S1,COC(=O)C(CC(=O)c1cccs1)=C1CCCN1c1ccccc1,6.1799776600000005
9024,GEPPOJ,C34 H24,Cc1c2ccccc2c(C)c2c1c1ccc3c(ccc4c5c(C)c6ccccc6c(C)c5c34)c21,4.76961157
9025,GEPPUP,C34 H24,Cc1c2ccccc2c(C)c2c1c1ccc3cc4c(cc3c21)c1c(C)c2ccccc2c(C)c41,5.0909780300000005
9026,GEPQAW,C27 H26 Cl2 F1 N1 O9,CC(=O)OCC1OC(Oc2c(Cl)cc3N=C4C=CC(=O)C=C4C(C)(C)c3c2Cl)C(F)C(OC(C)=O)C1OC(C)=O,5.278464469999999
9027,GEPREZ,C27 H19 Cl1 N2 O3 S1,Clc1ccc(cc1)C12CC(Sc3ccccc3N1C(=O)C2N1C(=O)C=CC1=O)c1ccccc1,5.4994209199999995
9028,GEPTAY,C26 H22 N2 O2,COc1ccc(cc1)C1=NN(C(C1)c1c2ccccc2cc2ccccc12)C(C)=O,5.44608661
9030,GEQNUO,C22 H16 O3,Oc1ccccc1CC1=C(Oc2ccccc2C1=O)c1ccccc1,6.067866760000001
9031,GEQPOK,C18 H12 O2 S1,O=Cc1ccc(cc1)C1=CC=C(S1)c1ccc(C=O)cc1,5.4898969300000005
9032,GEQXOP,C8 H6 Cl1 N1 O3 S2,CC1CC(=O)C(C(=O)O1)=C1SSN=C1Cl,5.37288798
9033,GEQYUW,C8 H4 Cl1 N1 O3 S2,CC1=CC(=O)C(C(=O)O1)=C1SSN=C1Cl,5.233565680000002
9034,GEQYUZ,C17 H18 N4 O5,CN1N(C(=O)C(=C1C)NN=C1C(=O)OC(C)(C)OC1=O)c1ccccc1,5.66377769
9035,GEQZOR,C12 H12 O2,CC1C=CC(C)C2=C1C(=O)C=CC2=O,5.917387789999999
9036,GERBAJ,C39 H31 Cl1 N4 O1,Cc1cc(C)c2nc(Cl)c(cc2c1)C1C(C2CCCN2C21c1ccccc1c1nc3ccccc3nc21)C(=O)c1ccccc1,5.88827161
9037,GERGAN,C20 H18 N2 O2,CCN(CC)c1ccc2N=C3C(=CC(=O)c4ccccc34)Oc2c1,4.62974505
9038,GERJEV,C23 H15 B1 F2 N2 S4,F[B-]1(F)N2C(=CC=C2C(=C2C=CC(=[N+]12)SC1=CC=CS1)c1ccccc1)SC1=CC=CS1,4.3083786
9039,GERKAQ,C52 H37 O2 P1,COc1ccc2ccccc2c1c1c2ccccc2ccc1C1=CC=C(P1c1ccccc1)c1ccc2ccccc2c1c1c(OC)ccc2ccccc12,5.3587380499999995
9040,GERKET,C20 H12 O4,O1C2=CC=C1C1=CC=C(O1)C=CC1=CC=C(O1)C1=CC=C(O1)C=C2,4.25286737
9041,GERNOJ,C18 H14 O2,Cc1ccc2c(c1)C(=O)C(=O)C(=C2c1ccccc1)C,5.477107579999999
9042,GERNUP,C23 H16 O2,Cc1cccc2C(=O)C(=O)C(=C(c3ccccc3)c12)c1ccccc1,5.619967349999998
9043,GERPAX,C23 H16 O2,Cc1ccc2C(=O)C(=O)C(=C(c3ccccc3)c2c1)c1ccccc1,5.38377253
9044,GERPEB,C20 H16 O4,CCOC(=O)C1=C(c2ccccc2)c2ccc(C)cc2C(=O)C1=O,5.644457599999999
9045,GERPIF,C24 H15 F3 O2,Cc1ccc2c(c1)C(=O)C(=O)C(=C2c1ccccc1)c1ccc(cc1)C(F)(F)F,5.40853489
9046,GERPOL,C24 H15 F3 O2,Cc1ccc2c(c1)C(=O)C(=O)C(=C2c1ccccc1)c1cccc(c1)C(F)(F)F,5.72337062
9047,GERQUS,C14 H15 N3 O2 S1,CCNC(=S)NN=C(C)C1=Cc2ccccc2OC1=O,5.13778161
9048,GERYOU,C23 H16 O2,Cc1ccc2c(c1)C(=O)C(=O)C(=C2c1ccccc1)c1ccccc1,5.45887596
9049,GERYUA,C17 H11 Br1 O2,Cc1ccc2c(c1)C(=O)C(=O)C(=C2c1ccccc1)Br,5.353840010000001
9050,GERZAH,C19 H15 Br1 O2,Cc1ccc2c(c1)C(=O)C(=O)C(=C2c1ccccc1)CCBr,5.635749959999999
9051,GESDAK,C33 H31 N1 O4 S1,CCOC(=O)C1=C(C(=O)c2ccccc2)C2=C(O1)C(SC(=C(C)N2CC)C)(c1ccccc1)c1ccccc1,6.01534878
9052,GESHEU,C30 H26 F6 O6 S2,CC(C)(C)c1cc2cc(cc3c4cc(OS(=O)(=O)C(F)(F)F)cc5cc(OS(=O)(=O)C(F)(F)F)cc(c(c1)c23)c45)C(C)(C)C,4.8618581700000005
9053,GESHOC,C32 H22 O10,COc1ccc(cc1)C1=CC(=O)c2c(O)c(c(O)cc2O1)c1c(O)cc(O)c2C(=O)C=C(Oc12)c1ccc(OC)cc1,6.337259469999999
9054,GESJET,C16 H19 N3 O7,COC1=C(C)C(=O)C2=C(C1=O)C(O)(COC(N)=O)C1(O)C3C(CN21)N3C,5.24417813
9055,GESMEX,C44 H50 N4 O1,CC(C)c1cccc(C(C)C)c1N=C(C)c1cccc(n1)c1cccc(c2cccc(n2)C(C)=Nc2c(cccc2C(C)C)C(C)C)c1O,6.25099938
9056,GESMEY,C18 H15 I1 O6,COc1cc(cc(OC)c1OC)C1=C(I)C(=C(O1)C1=CC=CO1)C=O,5.72255428
9057,GESNEZ,C12 H10 O5,CC1OC2CC(=O)OC2C2=C1C(=O)C=CC2=O,6.4262407
9058,GESNUP,C9 H5 Br1 Cl1 N3 O1,ClC(c1ccc(Br)cc1)=C(C=O)N=[N+]=[N-],5.8997004
9059,GESQEA,C34 H42 O10,COC(=O)C1=C(C(=O)OC)C2=C(OC=C1CCCCCCC2)C1=C2CCCCCCCC(=CO1)C(=C2C(=O)OC)C(=O)OC,5.64908354
9060,GESREC,C18 H18 O6,COc1ccc(C=CC(=O)c2c(O)cc(OC)c(O)c2OC)cc1,6.02487276
9061,GESRIG,C19 H20 O7,COc1cc(O)c(C(=O)C=Cc2ccc(OC)c(OC)c2)c(OC)c1O,5.69779191
9062,GESSAZ,C22 H14 N2 O2 S1,O=S1(=O)N=C(c2ccc3ccccc3c2)C(=N1)c1ccc2ccccc2c1,5.40608587
9063,GESSON,C24 H20 O2,COc1ccc(cc1)C(=O)C=CC=C(c1ccccc1)c1ccccc1,5.837114209999999
9064,GESSUT,C24 H20 O1,CC(=CC=C(c1ccccc1)c1ccccc1)C(=O)c1ccccc1,5.87929186
9065,GESTEE,C22 H12 O2 S2,O=C1c2ccccc2C(=O)c2c(ccc(C3=CC=CS3)c12)C1=CC=CS1,5.05260998
9066,GESTEF,C20 H27 N4 P1 S2,CC(C)N1C=C(N(C)C1=S)P(c1ccccc1)C1=CN(C(C)C)C(=S)N1C,5.806637459999999
9067,GESTII,C26 H14 Br2 O2,Brc1ccc(cc1)c1ccc(c2ccc(Br)cc2)c2C(=O)c3ccccc3C(=O)c12,5.64772297
9068,GESWOR,C24 H26 O4,CCOc1ccc(C=C2CCCC(=Cc3ccc(OC)cc3)C2=O)cc1OC,5.67248533
9069,GESWOS,C17 H13 Cl1 N2 O4,COc1cc2CCN3C(=O)C(=C(Cl)C(=C3c2cc1OC)C#N)C=O,5.59955882
9070,GESXAE,C20 H18 Br1 N1 O2,COc1ccc(cc1)C=C1CCCC(=Cc2cccc(Br)n2)C1=O,5.783779899999999
9071,GESZAG,C28 H22 O6,COC(=O)c1c2ccc3ccc(OC)cc3c2c2c(ccc3ccc(OC)cc23)c1C(=O)OC,5.80201152
9072,GETBUC,C28 H20 S5,S1SSC(C(SS1)=C(c1ccccc1)c1ccccc1)=C(c1ccccc1)c1ccccc1,6.07739074
9073,GETCIU,C14 H15 B1 F2 N2 O2,CC1=[N+]2C(=CC3=CC=C(CCC(O)=O)N3[B-]2(F)F)C(=C1)C,4.7799518899999995
9074,GETJOE,C12 H10 P2 S6,S=P1(Sc2ccccc2)SP(=S)(Sc2ccccc2)S1,6.21480823
9075,GETLAV,C18 H21 N3 O1,Cc1cccc(c1)N=Cc1cccnc1NC(=O)C(C)(C)C,6.34351808
9076,GETTUU,C15 H14 O3 S1,COc1ccc(cc1OC)C(=O)C=CC1=CC=CS1,5.9018773
9077,GETVAE,C19 H16 O4,Oc1ccccc1C1(OCC=C)OC(=CC1=O)c1ccccc1,6.2689588899999995
9078,GETXOS,C26 H12 Br2,Brc1ccc2ccc3ccc4ccc5ccc6ccc(Br)c7c1c2c3c4c5c67,5.69207753
9079,GEVBUG,C36 H34 O4,CC(C)(O)C#Cc1cc(C#CC(C)(C)O)c2ccc3c(cc(C#CC(C)(C)O)c4ccc1c2c34)C#CC(C)(C)O,4.7804961299999995
9080,GEVFES,C17 H14 O7,COc1c(O)ccc2C(=O)C3=C(C(C)OC4CC(=O)OC34)C(=O)c12,6.07548594
9081,GEVGEU,C20 H16 O3,COc1ccc2cc(ccc2c1)C(O)=CC(=O)c1ccccc1,5.808270139999999
9082,GEVLIE,C34 H26 O2 S2,COc1ccc(cc1)c1ccc(cc1)C1=CC=C(S1)C1=CC=C(S1)c1ccc(cc1)c1ccc(OC)cc1,4.98267671
9083,GEVNON,C18 H16 O5,CC1=COC2=C1C(=O)C(=O)c1c3CCC(O)C(C)(O)c3ccc21,5.52690442
9084,GEVTEI,C31 H29 F2 N3 O2,CN1CC(=Cc2ccc(F)cc2)C(=O)C2(C1)C(CN(C)C12C(=O)Nc2ccc(C)cc12)c1ccc(F)cc1,6.32256532
9085,GEWTUZ,C18 H16 O5,COc1c2OC=C(COC(C)=O)c2c(C=O)c2c(C)cccc12,5.718472569999999
9086,GEXBAO,C22 H17 F1 N2 O4,CCOC(=O)C1=CN(C2CC2)c2c(cc(F)c3Oc4ccccc4C=Nc23)C1=O,5.91385031
9087,GEXDAQ,C25 H18 N2 O2,CN(C)c1ccc(cc1)C#Cc1ccc2C(=O)N(CC#C)C(=O)c3cccc1c23,4.804714260000001
9088,GEXGIZ,C7 H8 N2 O4,OC(=O)Cn1cc[n+](CC(=O)[O-])c1,5.70704378
9089,GEXKID01,C8 H9 N3 O1 S1,NC(=S)NN=Cc1ccccc1O,5.84010746
9090,GEXQOR,C16 H12 N2 O2,ON=C1C(=O)C=C(Nc2ccccc2)c2ccccc12,5.7347994
9091,GEXVAG,C22 H36 N10 O2 S2,COC(=O)C(=NN=C1SC(=NN1C)N=NC(=NN=C1SC(=NN1C)C(C)(C)C)C(C)(C)C)C(C)(C)C,4.56008391
9092,GEXVUA,C56 H40 N1 O2 P1,O=C1C(=C(N2C3=C(c4ccccc4)P(OC3=C(c3ccccc3)C12c1ccccc1)(c1ccccc1)(c1ccccc1)c1ccccc1)c1ccccc1)c1ccccc1,5.173156410000001
9093,GEXWAH,C38 H25 N1 O2,O=C1C2=C(c3ccccc3)C(=O)C(=C(N2C(=C1c1ccccc1)c1ccccc1)c1ccccc1)c1ccccc1,5.30213837
9094,GEYCOE,C22 H24 N2 O2,Cc1cc(C)c(N2C=[N+](C(=CC2=O)[O-])c2c(C)cc(C)cc2C)c(C)c1,6.16147392
9095,GEYHIB,C12 H10 O2 S8,C1COC2SC3=C(SC2O1)SC(S3)=C1SC2=C(SCCS2)S1,5.99847772
9096,GEYHUN,C12 H10 S10,C1CSC2SC3=C(SC2S1)SC(S3)=C1SC2=C(SCCS2)S1,5.960109669999999
9097,GEYQIN,C25 H24 O5,Cc1ccc(cc1)C(CC(=O)C1=C(O)c2ccccc2OC1=O)C1CCCCC1=O,5.9386126699999995
9098,GEYRAD,C9 H11 N3 O1 S1,CC(=NNC(N)=S)c1ccccc1O,5.82242006
9099,GEYTAI,C25 H19 N1 S1,C1Cc2nc(C3=CC=CS3)c3c(CCc4ccccc34)c2c2ccccc12,5.81806624
9100,GEYZUF,C10 H8 O4,CC(C1=C(O)C=CO1)=C1OC=CC1=O,5.5492177599999994
9101,GEZCAP,C22 H20 O7,COc1ccc(cc1OC)C=C1C(=O)OC(=O)C1=Cc1ccc(OC)c(OC)c1,4.5998125299999995
9102,GEZFEW,C11 H12 S5,CC1=C(C)SC(C(=S)S1)=C1SC(=C(C)S1)C,5.09125014
9103,GEZFUP,C21 H26 N2 O2,CC(C)(C)c1cccc(C=Nc2ccc(cc2)N2CCOCC2)c1O,5.83602575
9104,GEZGAW,C17 H18 N2 O2,Oc1ccccc1C=Nc1ccc(cc1)N1CCOCC1,5.9203810500000005
9105,GEZHIF,C22 H15 F3 N3 O4 P1,FC(F)(F)c1ccc(cc1)C1OP(=O)(Oc2ccccc2)[N-]C2=C1[N+](=NO2)c1ccccc1,6.16147392
9106,GEZHOL,C21 H16 N3 O4 P1,O=P1(OC(c2ccccc2)C2=C(ON=[N+]2c2ccccc2)[N-]1)Oc1ccccc1,6.09589448
9107,GEZKOL,C16 H16,C1CC(CCC1=C1C=CC=C1)=C1C=CC=C1,6.20256311
9108,GEZLEF,C56 H44,C1Cc2cc(cc3CCc4cccc1c4c23)C(c1ccccc1)=C(c1cc2CCc3cccc4CCc(c1)c2c34)c1cc2CCc3cccc4CCc(c1)c2c34,5.27574334
9109,GEZMOP,C32 H26 N2 O4,CCOC(=O)C(=Cc1ccc2ccccc2c1)C(=C)ON=C1C(=O)N(Cc2ccccc2)c2ccccc12,5.91684356
9110,GEZSAH,C50 H46 N4,CC(C)(C)c1ccc(cc1)C1=NC(=C(N1C1(N=C(c2ccccc2)C(=N1)c1ccccc1)c1ccc(cc1)C(C)(C)C)c1ccccc1)c1ccccc1,5.0196842
9111,GEZWIU,C26 H21 N3 O2,COc1ccc(cc1)N1C(=O)C2=C(c3ccccc3N2C)C2=C1N(C)c1ccccc21,5.76935786
9112,GEZYES,C20 H26 N2 O3 S1,COc1ccc(NC2CCCC(C2)NS(=O)(=O)c2ccc(C)cc2)cc1,6.16392294
9113,GEZZOD,C21 H19 N3 O1,COc1ccc(NCc2ccccc2N2C=Cc3cccnc23)cc1,6.12392221
9114,GIBGOQ,C26 H24 O1 S1,COc1cccc2c1C1C3CCC(C3)C1C2=C(C1=CC=CS1)c1ccccc1,5.60554532
9115,GIBGUW,C19 H20 N2 O2 S1,CC(C)C1=C(C=NS(=O)(=O)c2ccccc2)N(C)c2ccccc12,5.787317369999999
9116,GIBKEJ,C16 H8 N2 O2 S2,O1c2cc3N=C(Oc3cc2N=C1C1=CC=CS1)C1=CC=CS1,5.73235038