,ID,formula,smiles,HOMO_LUMO_gap
706,ANTSTK,C23 H16 O1,O=C(C=Cc1ccccc1)c1c2ccccc2cc2ccccc12,5.49887669
708,ANULOL,C9 H7 N1 O1,O=C1NC=C2C=CC=CC2=C1,5.05641957
709,ANUXAK,C19 H17 N1 O2,COc1ccc(cc1)C1=CC(=NC=C(C)O1)c1ccccc1,6.08419358
710,ANUYEO,C32 H32 N2 O2,CCCCOc1ccc(cc1)C=C(C#N)c1ccc(cc1)C(=Cc1ccc(OCCCC)cc1)C#N,5.16444877
711,AOHEPY01,C9 H8 O6,CC(O)=C1C(=O)OC(=O)C(=C(C)O)C1=O,6.73590626
712,AOTETC,C26 H28 N2 O11,CN(C)C1C2C(OC(C)=O)C3C(=C(O)C2(OC(C)=O)C(=O)C(=C1O)C(N)=O)C(=O)c1c(O)cccc1C3(C)O,6.48229614
713,APACEA,C19 H14 N4,CN(C)c1ccc2nnc3c4cccc(C#N)c4ccc3c2c1,5.55983019
714,APACEB,C28 H18 N2 O1,Oc1ccc2ccccc2c1C=NN=Cc1ccc2ccc3cccc4ccc1c2c34,4.893967610000001
715,APAFED,C40 H24 N10,N#CC1=C(NC(=C(C#N)C1c1ccc(cc1)C1C(=C(NC(=C1C#N)c1ccncc1)c1ccncc1)C#N)c1ccncc1)c1ccncc1,6.0433765
717,APAHEG,C27 H34 Br1 P1,CC(C)(C)c1cc(c(P=C(Br)C#Cc2ccccc2)c(c1)C(C)(C)C)C(C)(C)C,5.54132645
718,APAJIM,C15 H10 Cl1 N1 O2,Clc1ccc2N(Cc3ccccc3)C(=O)C(=O)c2c1,5.92065316
719,APAJOS,C11 H8 Cl1 N1 O2,Clc1ccc2N(CC=C)C(=O)C(=O)c2c1,5.967456739999999
720,APAKIN,C14 H15 Br2 N1 O2,BrCCCCCCN1C(=O)C(=O)c2cc(Br)ccc12,5.85616218
721,APALEK,C18 H16 Cl2 N4 O2 S2,Clc1ccc(cc1)C(=O)NC(=S)NCCNC(=S)NC(=O)c1ccc(Cl)cc1,6.245557089999999
722,APANIQ,C15 H12 N4 O4,COc1ccccc1OC1=C(O)N=C(NC1=O)c1ncccn1,5.582959870000001
723,APAPEO,C17 H15 N1 O3,COc1ccc2C(=O)C(CCc2c1)=CC1=CC=CNC1=O,5.7293571199999995
724,APAPOY,C34 H28 O4,COC(=O)C1C(C(=O)OC)C(=C(c2ccccc2)C(=C1c1ccccc1)c1ccccc1)c1ccccc1,6.05725431
725,APAVET,C20 H20 N4 O2 S1,CC(C)Oc1ccc(c(O)c1)c1nc(NC(N)=S)ncc1c1ccccc1,5.69806403
726,APAVUJ,C25 H19 Cl1 N2 O3,CC(C)C1=CC2=C(C)C=C3C2=C(CC2(C#N)C(=C(C)OC4=C(Cl)C(=O)OC324)C#N)C=C1,5.0798213699999994
727,APBTRN,C25 H21 N3,CN(c1ccccc1)C(=C=C=C(C#N)c1ccccc1)N(C)c1ccccc1,4.82893239
728,APCHIB,C26 H16 O5,CC(=O)OC1=C(C(=O)C(=C2OC(=O)c3cccc1c23)c1ccccc1)c1ccccc1,5.71629566
729,APEDEG,C40 H20,c1ccc2c(c1)c1ccc3c4ccccc4C4=C5c6ccccc6c6ccc7c8ccccc8C(=C2c1c34)c7c56,4.08279621
730,APEHIO,C20 H10 N2,N#Cc1c2ccccc2c(C#N)c2cc3ccccc3cc12,4.18347834
731,APEHUA,C25 H23 N1 O1,CCCCN1c2ccccc2c2cc(C=Cc3ccc(C=O)cc3)ccc12,5.67683915
732,APEJEM,C14 H15 N3 O2,COc1ccc(NC(=O)c2nncc(C)c2C)cc1,6.11086074
733,APEJUC,C21 H12 F4 O5,COC(=O)C1=C(c2c(F)cccc2F)C(=C(C(=O)OC)C1=O)c1c(F)cccc1F,5.70976493
734,APEMUF,C28 H20 F1 N3 O4,FC12CC(N3C(=O)c4ccccc4C3=O)C(=O)N3C(Cc4ccccc4)C(=O)N(C13)c1ccccc21,6.1669162
735,APENTN01,C7 H12 N2 O4 S1,CC(=O)NC(C(O)=O)C(C)(C)SN=O,7.09564076
736,APINIY,C14 H11 N1 O3,CN(C)c1ccc2cc3C(=O)OC(=O)c3cc2c1,5.7712626600000005
737,APIPOG,C23 H13 N1 O2 S2,CN1C(=O)C2=C(c3ccccc3S2)c2c1ccc1Sc3ccccc3C(=O)c21,5.35193521
738,APISUP,C33 H36 N2 O3,CN(C)c1ccc(cc1)C(c1ccc(cc1)C=C(C#N)C(O)=O)=C1C=C(C(=O)C(=C1)C(C)(C)C)C(C)(C)C,4.33069193
739,APIXAA,C20 H14 N6 O4,COc1ccc(cc1)N1N=NC2=C1C(=O)C1=C(N=NN1c1ccc(OC)cc1)C2=O,5.54459181
740,APOJIA,C14 H7 As1 Br2 S2,BrC1=CC2=C(S1)C1=C(C=C(Br)S1)[As]2c1ccccc1,6.021607390000001
741,APOJOG,C26 H17 As1 S2,S1C(=CC2=C1C1=C(C=C(S1)c1ccccc1)[As]2c1ccccc1)c1ccccc1,5.4596923
742,APOQED,C25 H22 N6,C(C(=NNc1ccccc1)c1ccccn1)C(=NNc1ccccc1)c1ccccn1,5.81452876
743,APOQIH,C11 H10 N4 Se1,NC(=[Se])NN=Cc1cccc2cccnc12,4.79410182
744,APOVUX,C32 H22,C1c2ccccc2C=C1c1c2ccccc2c(C2=Cc3ccccc3C2)c2ccccc12,5.34377179
745,APOWIM,C32 H22,C1C=C(c2ccccc12)c1c2ccccc2c(C2=CCc3ccccc23)c2ccccc12,5.36445245
746,APOWOS,C23 H15 Br1,Brc1c2ccccc2c(C2=CCc3ccccc23)c2ccccc12,5.2610491800000005
747,APOYAH,C17 H11 N3 O2,O=C1Oc2ccccc2C=C1N1C=C(N=N1)c1ccccc1,5.77452802
748,APOYEL,C18 H13 N3 O3,COc1ccc2OC(=O)C(=Cc2c1)N1C=C(N=N1)c1ccccc1,5.7704463100000005
749,APOYIP,C18 H13 N3 O3,COc1ccc2C=C(N3C=C(N=N3)c3ccccc3)C(=O)Oc2c1,5.8762986
750,APOYOV,C21 H20 N4 O2,CCN(CC)c1ccc2C=C(N3C=C(N=N3)c3ccccc3)C(=O)Oc2c1,5.55357158
751,APOYUB,C17 H10 F1 N3 O2,Fc1ccc(cc1)C1=CN(N=N1)C1=Cc2ccccc2OC1=O,5.70296207
752,APOZAI,C18 H12 Cl1 N3 O3,COc1ccc2OC(=O)C(=Cc2c1)N1C=C(N=N1)c1ccc(Cl)cc1,5.66785939
753,APOZEM,C19 H15 N3 O4,COc1ccc(cc1)C1=CN(N=N1)C1=Cc2ccc(OC)cc2OC1=O,5.43302514
754,APSEUR,C9 H10 N2 O1 Se1,CC(=O)NC(=[Se])Nc1ccccc1,6.011267070000001
755,APUCIY,C12 H9 Cl1 O2,Clc1ccc2OC3CCC(=O)C3=Cc2c1,6.01398821
756,APUGOH,C42 H44 O10,O=C1C=Cc2ccc(OCCOCCOCCOc3ccc(cc3)C(=O)C=Cc3ccc(OCCOCCOCCOc4ccc1cc4)cc3)cc2,5.681465080000001
757,APUQUZ,C20 H27 Br1 Cl1 N1 O2,Clc1ccc2N(CCCCCCCCCCCCBr)C(=O)C(=O)c2c1,5.92201373
758,APUREI,C16 H12 O4,COc1cccc2C(=O)c3cccc(OC)c3C(=O)c12,6.02895447
759,APUSAF01,C24 H18 O4,OC(=CC(=O)c1ccc(cc1)C(=O)C=C(O)c1ccccc1)c1ccccc1,5.9206531600000005
760,AQABID,C28 H24,CC1Cc2ccc3ccccc3c2C1=C1C(C)Cc2ccc3ccccc3c12,5.45397791
761,AQACOL,C42 H42 N4 O4,O=C1C2=CNc3ccccc3N=CC(=CNc3ccccc3N=C2)C(=O)c2ccccc2OCCCCCCCCCCOc2ccccc12,5.0667599
762,AQACUR,C42 H38 Cl4 N4 O4,Clc1cc2NC=C3C=Nc4cc(Cl)c(Cl)cc4NC=C(C=Nc2cc1Cl)C(=O)c1ccccc1OCCCCCCCCCCOc1ccccc1C3=O,5.0610455000000005
763,AQADAY,C46 H42 N4 O8,O=C1C2=CNc3ccccc3N=CC(=CNc3ccccc3N=C2)C(=O)c2ccccc2OCCOCCOc2ccc(OCCOCCOc3ccccc13)cc2,5.46078075
764,AQAFED,C14 H28 O2 Si4,C[SiH](C)C1=C([SiH](C)C)C(=O)C(=C([SiH](C)C)C1=O)[SiH](C)C,5.596021329999999
765,AQAJUZ,C13 H12 Br1 N1 O3,CCNc1ccc2C=C(C(C)=O)C(=O)Oc2c1Br,5.75548005
766,AQAKAG,C15 H16 Br1 N1 O3,CCN(CC)c1ccc2C=C(C(=O)CBr)C(=O)Oc2c1,5.49479498
767,AQAMOW,C22 H12 O2,O=C1c2ccccc2C=Cc2cc3C(=O)c4ccccc4c3cc12,5.4196915599999995
768,AQAMUC,C21 H18 B1 F2 N3,CC1(C)c2ccccc2[N+]2=C1C1=C(N3CC=CC3=C1)C1=CC=CN1[B-]2(F)F,5.08798477
769,AQAXIB,C18 H10 S2,S1C=Cc2cc3cc4cc5C=CSc5cc4cc3cc12,4.23109826
770,AQAXOH,C18 H10 S2,S1C=Cc2cc3cc4cc5SC=Cc5cc4cc3cc12,4.445796079999999
771,AQAZUP,C18 H16 N2 O4,CCOC(=O)C1=C(C(=O)c2ccncc2)c2cc(OC)ccc2N1,6.10950017
772,AQEDEH,C42 H22 S2,S1C(=Cc2c1c(C#Cc1ccccc1)c1C=C(Sc1c2C#Cc1ccccc1)C#Cc1ccccc1)C#Cc1ccccc1,4.6580449
773,AQEJEM,C30 H12 F6 N2 O2 S4,FC(F)(F)c1ccc(cc1)C1=NC=C(S1)C1=CC2=C(S1)C(=O)C1=C(SC(=C1)C1=CN=C(S1)c1ccc(cc1)C(F)(F)F)C2=O,4.87845711
774,AQEJIQ,C10 H2 I2 O2 S2,IC1=CC2=C(S1)C(=O)C1=C(SC(=C1)I)C2=O,5.466495139999999
775,AQEQIX01,C20 H22 N2 O2,CC(=O)C=C(C)Nc1cccc2c(NC(C)=CC(C)=O)cccc12,5.81425664
776,AQEQOE,C20 H20 N2 O2,CCN(CC)c1ccc2C=C(C=Nc3ccccc3)C(=O)Oc2c1,5.45343368
777,AQEQUK,C19 H19 N3 O2,CCN(CC)c1ccc2C=C(C=Nc3ccccn3)C(=O)Oc2c1,5.26785203
778,AQERAR,C20 H15 N1 O1,CC(=O)c1ccc2C=C(c3ccccc3)C3=CC=CN3c2c1,5.43302514
779,AQEREV,C20 H14 Cl1 N1 O1,CC(=O)c1ccc2C=C(c3ccc(Cl)cc3)C3=CC=CN3c2c1,5.38975904
780,AQEZUR,C10 H10 O2 S2,CSC(=S)C=C(O)c1ccc(O)cc1,5.24036853
782,AQIHAJ,C19 H15 N3 O2,CN1C(=O)N=C2N(Cc3ccccc3)C3=CC=CC=CC3=C2C1=O,4.9415875300000005
783,AQIJAL,C20 H26 O7 S1,CS(=O)CC(C)(O)C1OC(=O)C=C2C3(C)CCCC4(C)C3C(OC4=O)C3OC123,6.2199784000000005
784,AQIJEP,C20 H25 Cl1 O8 S1,CS(=O)CC(C)(O)C1OC(=O)C=C2C3(C)CC(Cl)C(O)C4(C)C3C(OC4=O)C3OC123,6.46678566
785,AQIJIV,C38 H18 N4,c1cc2ccc3cccc4c5nc6cc7nc8c9cccc%10ccc%11cccc(c8nc7cc6nc5c(c1)c2c34)c%11c9%10,4.56661464
786,AQIJUH,C36 H46 O4 S4,CCCCC(CC)CC1=CSC(=C1)C1=C2OCCOC2=C(S1)C1=C2OCCOC2=C(S1)C1=CC(=CS1)CC(CC)CCCC,4.8879811
787,AQINOF,C37 H33 N3,CC1(C)c2cccc3c2N2c4c1cc(cc4C(C)(C)c1cc(cc(c21)C3(C)C)c1ccncc1)c1ccncc1,5.68663525
788,AQINUL,C13 H12 N2 O1 S2,O=C(NC(=S)NCc1ccccc1)C1=CC=CS1,6.0499072400000005
789,AQIPUN,C12 H10 N2 O1 S2,O=C(NC(=S)Nc1ccccc1)C1=CC=CS1,5.90895226
790,AQIQOH,C26 H37 Br1 N4 O2,CCCCCCCCN1C(=O)NC(=O)C=C1C#Cc1cc(CN(C)C)c(Br)c(CN(C)C)c1,6.13235774
791,AQIRID,C19 H13 N5,c1ccc(cc1)C1=CN(N=N1)C1=C2N=CC=CN2c2ccccc12,5.16662568
792,AQITAX,C18 H15 N1 O3,O=C(CCC1C(=O)Nc2ccccc12)C(=O)c1ccccc1,5.95466739
793,AQIYIK,C20 H16 N2 O4 S1,O=C(NS(=O)(=O)c1ccc([NH+]=Cc2ccccc2[O-])cc1)c1ccccc1,4.9745133
794,AQOPUT,C29 H16 S1,CSc1ccc2ccc3c4ccc5ccc6ccc7ccc(c3c2c1)c1c7c6c5c41,5.6289471099999995
795,AQOQAA,C30 H19 N1,CN(C)c1ccc2ccc3c4ccc5ccc6ccc7ccc(c3c2c1)c1c7c6c5c41,5.418875219999999
796,AQOQON,C39 H30 N2 S1,CC(C)(C)c1ccc(cc1)N1C(=Nc2c3ccccc3c3ccccc3c12)C1=CC=C(S1)c1cccc2ccccc12,5.75384737
797,AQOQUT,C39 H30 N2 S1,CC(C)(C)c1ccc(cc1)N1C(=Nc2c3ccccc3c3ccccc3c12)C1=CC=C(S1)c1ccc2ccccc2c1,5.40445318
798,AQORAA,C35 H28 N2 S1,CC(C)(C)c1ccc(cc1)N1C(=Nc2c3ccccc3c3ccccc3c12)C1=CC=C(S1)c1ccccc1,5.7054111
799,AQOREE,C45 H32 N2 S1,CC(C)(C)c1ccc(cc1)N1C(=Nc2c3ccccc3c3ccccc3c12)C1=CC=C(S1)c1ccc2ccc3cccc4ccc1c2c34,5.142951770000001
802,AQOTAC,C36 H24,c1ccc(cc1)C(c1ccccc1)=C(c1ccccc1)c1ccc2ccc3cccc4ccc1c2c34,5.50214206
803,AQOVEH,C18 H20 N2 O4,OC1=CC=CC(=CNCCCCNC=C2C=CC=C(O)C2=O)C1=O,5.33479204
804,AQOVUZ,C23 H25 N2 O5 P1,CCOP(=O)(CC(C)(N1C(=O)c2ccccc2C1=O)C1=CNc2ccccc12)OCC,5.77888184
805,AQOWAG,C19 H23 N2 O5 P1,CCOP(=O)(CC(C)(N1C(=O)c2ccccc2C1=O)C1=CC=CN1)OCC,5.4509846500000005
806,AQUDIA,C33 H45 N5 O3 S1,Cc1ccc(cc1)S(=O)(=O)[N-]C(=O)CN1CCCN(CC[NH2+]CCCN(CC1)Cc1ccccc1)Cc1ccccc1,6.902984160000001
807,AQUGOK,C18 H13 N3 S1,S(c1ccccc1)C1=Cc2ccccc2N1c1ncccn1,5.94187804
808,AQUHOK,C15 H20 N2 P2 S2,CN(C)P1(=S)CP(=S)(N(C)C)c2cccc3cccc1c23,5.72391485
809,AQUJOM,C35 H22 F6 S2,CC12SC(=CC1=C1C(=C3C=C(SC23C)c2cccc3ccccc23)C(F)(F)C(F)(F)C1(F)F)c1cccc2ccccc12,4.27762973
810,AQUNUW,C34 H20 F4 O2,Fc1ccc(cc1)C1=CC(C=C(O1)c1ccc(F)cc1)=C1C=C(OC(=C1)c1ccc(F)cc1)c1ccc(F)cc1,4.38593104
811,ARADEC,C10 H12 N6 O1,CC(=NNC(N)=O)C1=CC=CC2=C(C)N=NN12,5.96201446
812,ARAFUV,C36 H26 O2,COc1cc2c(cc1OC)c(c1ccccc1)c1c3ccc4CCc5ccc(c3c45)c1c2c1ccccc1,5.456154809999999
813,ARAGAC,C42 H30,Cc1cc2c(cc1C)c(c1ccccc1)c1c3ccc4c5c(C)ccc(C)c5c5ccc(c3c45)c1c2c1ccccc1,4.9391385
814,ARAGOQ,C32 H28,CCCCc1c2cc(C)c(C)cc2c(c2ccccc2)c2c3cccc4cccc(c34)c12,5.6196952399999995
815,ARALEK,C14 H10 N4 O2,O=C(NN=C1C(=O)Nc2ccccc12)c1ccccn1,6.08909163
816,ARARAO,C12 H10 Br2 N2 O2,COc1ccc(cc1OC)C(=NC=C(Br)Br)C#N,5.35792171
817,ARARUH,C14 H12 N4,Nc1ccccc1C1=CN(N=N1)c1ccccc1,6.2025631
818,ARASUI,C42 H30 N8,C(N1C=C(N=N1)c1ccccc1N=C1c2cccc3cccc(C1=Nc1ccccc1C1=CN(Cc4ccccc4)N=N1)c23)c1ccccc1,5.722282160000001
819,ARASUJ,C46 H42 O4,COC(OC)c1ccc(cc1)C(c1ccccc1)=C(c1ccccc1)C(c1ccccc1)=C(c1ccccc1)c1ccc(cc1)C(OC)OC,5.76718095
820,ARATAP,C40 H26 N8,c1ccc(cc1)N1C=C(N=N1)c1ccccc1N=C1c2cccc3cccc(C1=Nc1ccccc1C1=CN(N=N1)c1ccccc1)c23,5.54486393
821,ARAWIA,C36 H20 N2 O2,O1c2ccccc2c2nc3cc4c(cc3c(c3ccccc3)c12)nc1c(Oc2ccccc12)c4c1ccccc1,4.90947809
822,ARAWIB,C49 H36 N4,CN1c2ccccc2c2c1c1ccccc1c1N(CCCN3c4ccccc4c4c3c3ccccc3c3N(C)c5ccccc5c43)c3ccccc3c21,5.63711052
823,ARAWOG,C38 H20 N2 O2,O=C1c2ccccc2c2nc3cc4c(cc3c(c3ccccc3)c12)nc1c2ccccc2C(=O)c1c4c1ccccc1,5.14948251
824,ARAXAS,C19 H16 N4 S1,S=C(NN=C(c1ccccc1)c1ccccn1)Nc1ccccc1,5.45071254
825,ARAYEX,C20 H31 P1,CC(C)(C)c1cc(c(P=C=C)c(c1)C(C)(C)C)C(C)(C)C,4.994649730000002
826,ARECAB,C12 H6 O1 S11,CSC1=C(SC)SC(S1)=C1SC(=S)C(S1)=C1SC2=C(SC(=O)S2)S1,4.24443184
827,AREDOS,C48 H34 N4,N#CC(=Cc1ccc(cc1)C=C(C#N)c1ccc(cc1)N(c1ccccc1)c1ccccc1)c1ccc(cc1)N(c1ccccc1)c1ccccc1,4.4596739
828,AREDUY,C48 H34 N4,N#CC(=Cc1ccc(cc1)N(c1ccccc1)c1ccccc1)c1ccc(cc1)C(=Cc1ccc(cc1)N(c1ccccc1)c1ccccc1)C#N,4.9105665499999995
829,AREGIP,C22 H16 S4,C1Cc2ccccc2C2=C1SC(S2)=C1SC2=C(S1)c1ccccc1CC2,5.19764666
830,AREGOV,C22 H12 S4,S1C(Sc2c1ccc1ccccc21)=C1Sc2ccc3ccccc3c2S1,5.0196842
831,AREJUE,C28 H23 Cl4 N3,CN1C2CCC1C(=Cc1ccc(Cl)cc1Cl)C1=NN(C(C21)c1ccc(Cl)cc1Cl)c1ccccc1,5.94269438
832,AREKIT,C24 H22 N2 O3,COc1ccc(cc1)C1Nc2ccccc2NC2=C1C(=O)CC(C2)C1=CC=CO1,6.18433148
833,AREROF,C19 H18 O3 S1,CCC(C(=O)c1ccccc1)C1(COC(=S)O1)c1ccccc1,6.153854730000001
834,ARETOI,C20 H22 N2 O2,Cc1ccc(c(C)c1)C(=O)C(=Nc1ccccc1)N1CCOCC1,6.30242889
835,ARETUO,C18 H18 N2 O1 S1,O=C(c1ccccc1)C(=Nc1ccccc1)N1CCSCC1,6.28120401
836,ARIFEN,C28 H18 S4,S1C=CC2=C1C=C(S2)C=Cc1ccc(cc1)c1ccc(C=CC2=CC3=C(S2)C=CS3)cc1,5.0795492399999995
837,ARIFIR,C24 H18 S2,S1C=CC=C1C=Cc1ccc(cc1)c1ccc(C=CC2=CC=CS2)cc1,5.2498925100000005
838,ARIGOZ,C30 H28 O8,COc1ccc(cc1OC)C(c1ccc(OC)c(OC)c1)C1(C#C)C(=O)c2cc(OC)c(OC)cc2C1=O,5.29724033
839,ARIPEX,C13 H14 N2 O2 S2,CON1C(=O)C(=CN=C(SC)SC)c2ccccc12,5.533707270000001
840,ARIWOP,C30 H44 N2,CC(C)CN(CC(C)C)c1c2ccccc2c(N(CC(C)C)CC(C)C)c2ccccc12,5.33588049
841,ARIWUV,C26 H36 N2,CCCN(CCC)c1c2ccccc2c(N(CCC)CCC)c2ccccc12,5.27438276
842,ARIXAC,C26 H32 N2,C1CCCN(CC1)c1c2ccccc2c(N2CCCCCC2)c2ccccc12,5.27928081
843,ARIXEG,C18 H20 N2,CN(C)c1c2ccccc2c(N(C)C)c2ccccc12,5.3097575599999995
844,AROBUF,C22 H4 F8 O2,Fc1c(F)c(F)c2cc3C(=O)c4cc5c(F)c(F)c(F)c(F)c5cc4C(=O)c3cc2c1F,5.833576729999999
845,ARODES,C20 H21 Br1 Cl1 F3 N2 O2 S1,FC(F)(F)c1cc(Cl)ccc1[N-]S(=O)(=O)C1CCCCC1[NH2+]Cc1ccc(Br)cc1,6.1799776600000005
846,ARODIW,C20 H21 Cl2 F3 N2 O2 S1,FC(F)(F)c1cc(Cl)ccc1[N-]S(=O)(=O)C1CCCCC1[NH2+]Cc1cccc(Cl)c1,6.03276406
847,AROFIW,C18 H12 N2 O1,ON=C1C=CC(c2ccccc12)=C(C#N)c1ccccc1,5.3407785400000005
848,AROFOC,C12 H9 N5 O1,ON=C1C=CC(=NN2C=NN=C2)c2ccccc12,5.5954771
849,AROGET,C13 H12 N4 O1,CN1C(=NC(=NO)C1=C(C#N)c1ccccc1)C,5.83466518
850,AROKEX,C14 H17 N2 O5 P1 S1,CCOP(=S)(NN=CC1=C(O)c2ccccc2OC1=O)OCC,5.90623113
851,AROLOI,C35 H40 O6,COc1c2C=CC(C)(C)Oc2c(CC=C(C)C)c2OC34C5CC(C=C3C(=O)c12)C(=O)C4(CC=C(C)C=C)OC5(C)C,6.00854593
852,ARONOM,C41 H32 N2,CC(C)(C)c1ccc(cc1)C1=Nc2c3ccccc3c3ccccc3c2N1c1ccc(cc1)c1ccc2ccccc2c1,5.68445834
853,AROPUT,C26 H20 N4 O2,O=C1c2ccccc2C(=O)c2c(NCc3cccnc3)ccc(NCc3cccnc3)c12,4.2800787499999995
854,AROQAA,C20 H14 N2 O2,O=C1c2ccccc2C(=O)c2c(NCc3cccnc3)cccc12,5.17397276
855,AROQEE,C26 H20 N4 O2,O=C1c2cccc(NCc3cccnc3)c2C(=O)c2cccc(NCc3cccnc3)c12,5.10757697
857,AROROQ,C60 H36 S4,S1Sc2cc3cc4c(cc3cc2SSc2cc3cc5c(cc3cc12)c(c1ccccc1)c1ccccc1c5c1ccccc1)c(c1ccccc1)c1ccccc1c4c1ccccc1,4.282799890000001
858,AROXAI,C24 H35 N3,CC(C)c1cccc(C(C)C)c1N=C(NCCc1ccccn1)C(C)(C)C,6.31821149
859,AROYUC,C14 H14 N4 O1,CN(C)C(N)=C(C=C1Nc2ccccc2C1=O)C#N,4.9647172
860,AROZAJ,C17 H18 N4 O1,NC(N1CCCCC1)=C(C=C1Nc2ccccc2C1=O)C#N,4.88417151
861,AROZEN,C16 H16 N4 O2,NC(N1CCOCC1)=C(C=C1Nc2ccccc2C1=O)C#N,4.9309750900000004
862,AROZIR,C19 H16 N4 O2,COc1ccc(NC(N)=C(C=C2Nc3ccccc3C2=O)C#N)cc1,4.86403508
863,AROZOX,C19 H16 N4 O1,NC(NCc1ccccc1)=C(C=C1Nc2ccccc2C1=O)C#N,4.921995320000001
864,ARTEMT,C20 H19 Br1 O8,COc1ccc(cc1OC)C1=C(OC)C(=O)c2c(O)c(OC)c(OC)c(Br)c2O1,5.88228511
865,ARUDIA,C16 H12 N2 S1,CN1C=C(C=C(C#N)C2=CSC=C2)c2ccccc12,5.74160224
866,ARUGAX,C54 H40 Cl2,CC(C)(C)c1ccc(cc1)c1c2ccccc2c2c3c4c(Cl)cccc4c4c(c5ccc(cc5)C(C)(C)C)c5ccccc5c(c5c6c(Cl)cccc6c1c25)c34,4.56688675
867,ARUGEB,C54 H38,CC(C)(C)c1ccc(cc1)c1c2cccc3c4cccc5c4c4c(c23)c2c1c1cccc3c6cccc7c(c8ccc(cc8)C(C)(C)C)c5c4c(c67)c2c13,4.45341527
868,ARULEG,C15 H14 O6,CC(=O)C=C(O)c1cc(cc(c1)C(O)=CC(C)=O)C(O)=O,6.08310513
869,ARUMUX,C30 H27 N3 O2,CN1C(=O)C2(C(C(C3CCCN23)C2=CNc3ccccc23)C(=O)c2ccccc2)c2ccccc12,6.0607918
870,ARUNAE,C31 H24 N2 O2,CN1CC(C(C(=O)c2ccccc2)C21C(=O)c1cccc3cccc2c13)C1=CNc2ccccc12,5.27710391
871,ARUNEI,C28 H25 N3 O2,CN1CC(C(C(=O)c2ccccc2)C21C(=O)N(C)c1ccccc21)C1=CNc2ccccc12,6.13208562
872,ARUNIM,C28 H22 N2 O3,CN1CC(C(C2=CNc3ccccc23)C21C(=O)c1ccccc1C2=O)C(=O)c1ccccc1,5.566633039999999
873,ARUVAK,C19 H21 N3 O4,CN(CCCCC(O)=O)c1ccc(cc1)N=Nc1ccc(cc1)C(O)=O,5.14621714
874,ARUVIS,C16 H17 N3 O3,CN(CCO)c1ccc(cc1)N=Nc1ccc(cc1)C(O)=O,5.24417813
875,ARUVOY,C17 H19 N3 O4,OCCN(CCO)c1ccc(cc1)N=Nc1ccc(cc1)C(O)=O,5.58649735
876,ARUWAM,C12 H11 F1 N2 O1,CN1C(=NC(=Cc2ccccc2F)C1=O)C,5.84174014
877,ARUWEQ,C13 H14 N2 O1,CN1C(=NC(=Cc2ccccc2C)C1=O)C,5.66350557
878,ARUWIU,C14 H16 N2 O1,CN1C(=NC(=Cc2ccc(C)cc2C)C1=O)C,5.59547711
879,ARUWOA,C14 H16 N2 O1,CN1C(=NC(=Cc2cc(C)ccc2C)C1=O)C,5.71602354
880,ARUWUG01,C12 H12 N2 O2,CN1C(=NC(=Cc2cccc(O)c2)C1=O)C,5.83656998
881,ARUXIV,C13 H14 N2 O2,COc1cccc(c1)C=C1N=C(C)N(C)C1=O,5.78541257
882,ASAGAE,C15 H10 Cl1 F3 N2 O1 S1,FC(F)(F)c1ccccc1NC(=S)NC(=O)c1cccc(Cl)c1,6.00854593
883,ASAGEG,C36 H48 O9,COc1cc2CCC3(Oc2c(OC)c1C(C)C)C1Cc2cc(OC)c(C(C)C)c(OC)c2OC1(OC)C(=C(OC)C3=O)C(C)C,6.114942450000001
884,ASAGEI,C18 H19 Cl1 N2 O1 S1,CCc1cccc(CC)c1NC(=S)NC(=O)c1cccc(Cl)c1,5.92446276
885,ASAGIM,C14 H10 Cl1 F1 N2 O1 S1,Fc1cccc(NC(=S)NC(=O)c2cccc(Cl)c2)c1,5.9982056
887,ASAPAN,C31 H24 N2 O2 S1,O=C(C1C(C2CCCN2C21C(=O)c1cccc3cccc2c13)C1=CNc2ccccc12)C1=CC=CS1,5.40309261
888,ASASIY,C35 H26 B1 F10 O1 P1,CCC1=C(C)C[P+](C2C[B-](OC(=C12)C)(c1c(F)c(F)c(F)c(F)c1F)c1c(F)c(F)c(F)c(F)c1F)(c1ccccc1)c1ccccc1,5.72854078
889,ASAVIB,C7 H8 N4 O1 S1,NC(=S)NNC(=O)c1ccncc1,5.663233460000001
890,ASAWUO,C32 H30 N4 O2 S2,CC(C)N1C(SC(=Cc2ccc(cc2)C=C2SC(=Nc3ccccc3)N(C(C)C)C2=O)C1=O)=Nc1ccccc1,5.209347559999999
891,ASCHLR10,C29 H32 Br1 Cl1 O6 S1,CC1CCC(=O)C(C)C1(C)C=CC(C)=CCc1c(O)c(C=O)c(C)c(Cl)c1OS(=O)(=O)c1ccc(Br)cc1,6.016437229999999
892,ASECEI,C15 H16 N1 O1 P1 S3,COc1ccc(cc1)P1(=S)SC(=S)C2=C(C)C(=C(C)N12)C,5.7192889099999995
893,ASEHAJ,C18 H17 N1 O2,COc1ccc2ccccc2c1CNc1ccccc1O,5.95330682
894,ASEJAJ,C27 H21 N3 O2 S1,Cc1ccc(cc1)C=NN=C1SC=C(N1Cc1ccccc1)C1=Cc2ccccc2OC1=O,4.74838669
895,ASELEP,C15 H12 N2 O3,CC1=NN(C(=O)C1=C(O)C1=CC=CO1)c1ccccc1,5.02294957
896,ASELOA,C41 H32 O1 P2 S2,O=C(C=Cc1ccccc1P(=S)(c1ccccc1)c1ccccc1)C=Cc1ccccc1P(=S)(c1ccccc1)c1ccccc1,5.54513604
898,ASEPUJ,C26 H22,Cc1cc2cc3cc4cc5cc(C)c(C)cc5cc4cc3cc2cc1C,3.8185736599999993
899,ASEVAW,C45 H30 F6 S2,CCC1=C(C=C(S1)c1c2ccccc2cc2ccccc12)C1=C(C2=C(CC)SC(=C2)c2c3ccccc3cc3ccccc23)C(F)(F)C(F)(F)C1(F)F,4.244431840000001
900,ASEVEA,C45 H30 F6 S2,CCC1=C(C=C(S1)c1cccc2cc3ccccc3cc12)C1=C(C2=C(CC)SC(=C2)c2cccc3cc4ccccc4cc23)C(F)(F)C(F)(F)C1(F)F,5.36608513
901,ASEVIE,C45 H30 F6 S2,CCC1=C(C=C(S1)c1ccc2cc3ccccc3cc2c1)C1=C(C2=C(CC)SC(=C2)c2ccc3cc4ccccc4cc3c2)C(F)(F)C(F)(F)C1(F)F,5.2188715299999995
902,ASEWUR,C24 H33 N5 O4,CCOC(=O)C1=CN(NN1)c1ccc2N(C)C3C(=CN(C)CCC3(CC)c2c1)C(=O)OCC,4.57096846
903,ASEZII,C34 H26 O6 S6,COC(=O)C1=C(SC(S1)=C1SC2=C(SCCOc3ccc4ccccc4c3c3c(OCCS2)ccc2ccccc32)S1)C(=O)OC,5.0419975400000006
904,ASEZOO,C30 H22 O2 S6,C1CSC2=C(SCCOc3ccc4ccccc4c3c3c(O1)ccc1ccccc31)SC(S2)=C1SC=CS1,5.63411728
905,ASIHEP,C19 H14 O2 S4,CC(=O)Oc1ccc(cc1)C1=C(C)SC(S1)=C1Sc2ccccc2S1,5.42867132
908,ASIJIW,C18 H16 N4 O2,CCOC(=O)C(=NNc1cccc2cccnc12)c1ccccn1,5.48608734
909,ASILAP,C32 H24 N2 O4 S6,C1COC2=C(SC=C2O1)C1=C(SCc2ccc(nc2)c2ccc(CSC3=C(SC=C3)C3=C4OCCOC4=CS3)cn2)C=CS1,5.73343883
910,ASILET,C44 H30 O2,OC(C#Cc1c2ccccc2c(C#CC(O)(c2ccccc2)c2ccccc2)c2ccccc12)(c1ccccc1)c1ccccc1,4.876824430000002
911,ASILIY,C23 H30 N2 O1,CCC(C=CC=O)C(c1ccc(cc1)N(C)C)c1ccc(cc1)N(C)C,5.971810570000001
912,ASILOE,C22 H28 N2 O1,CC(C=CC=O)C(c1ccc(cc1)N(C)C)c1ccc(cc1)N(C)C,6.00065463
913,ASILUK,C28 H32 N2 O1,CN(C)c1ccc(cc1)C(C(C=O)C=C(C)c1ccccc1)c1ccc(cc1)N(C)C,6.11657513
914,ASIMAR,C23 H30 N2 O1,CN(C)c1ccc(cc1)C(c1ccc(cc1)N(C)C)C(C)(C)C=CC=O,6.012083410000001
915,ASIQAV,C28 H24 O2,COc1ccc2c(CC(C)(C)C3=CC(=O)c4ccccc4C3=C2c2ccccc2)c1,5.624865399999999
916,ASIQEZ,C29 H26 O2,COc1ccc2c(CCC(C)(C)C3=CC(=O)c4ccccc4C3=C2c2ccccc2)c1,5.681465080000001
917,ASISEA,C11 H11 N3,Nc1ccccc1N=CC1=CC=CN1,5.68282566
918,ASITOL,C14 H12 N2 O3,Nc1ccccc1C(=O)Nc1ccccc1C(O)=O,5.84582185
919,ASITOM,C26 H16 F2,Fc1cccc(c1)c1c2ccccc2c(c2cccc(F)c2)c2ccccc12,5.42458961
921,ASIWAB,C21 H24 O2,CCOC(=O)C=C(C)C=CC=CC=CC(C)=Cc1ccccc1,4.94730192
922,ASIXAC,C16 H12 N2 O4,Cc1ccc(O)c(c1)C(=NO)C1=NOC(=O)c2ccccc12,6.32936816
923,ASIXIK,C19 H17 N1 O3,COc1cc(OC)c2C=C3N(CCc4ccccc34)C(=O)c2c1,5.7682694
924,ASIYUX,C5 H7 N3 O5 S1,COc1cc[nH+]c(NOS(=O)(=O)[O-])n1,5.30866911
925,ASIZEJ,C21 H14 F1 N1 O1,Fc1ccc(cc1)c1ccc(cc1)C=C1Nc2ccccc2C1=O,5.20717064
926,ASOBEQ,C15 H15 N3 S4,CC1=C(C)SC(S1)=C1SC(=C(S1)C=NN=CC1=CC=CN1)C,4.402529990000001
927,ASOBIU,C15 H14 N2 S5,CC1=C(C)SC(S1)=C1SC(=C(S1)C=NN=CC1=CSC=C1)C,4.36252925
928,ASOBOA,C15 H18 N2 O1 S4,CC(=O)C=C(C)NN=CC1=C(C)SC(S1)=C1SC(=C(C)S1)C,4.78484995
929,ASOBUG,C16 H20 N2 O1 S4,CCC(=O)C(CC)=NN=CC1=C(C)SC(S1)=C1SC(=C(C)S1)C,4.209873379999999
931,ASOGIY,C28 H31 F3 N2 O5,CCOC(=O)C1=C(C)C(=C(N1)C(c1ccccc1C(OC)C(F)(F)F)=C1N=C(C(=C1C)C)C(=O)OCC)C,4.84498711
932,ASOGOE,C38 H35 F3 N2 O5,COC(c1ccccc1C(C1=C(C)C(=C(N1)C(=O)OCc1ccccc1)C)=C1N=C(C(=C1C)C)C(=O)OCc1ccccc1)C(F)(F)F,4.91247134
933,ASONEC,C32 H23 N1,Cc1ccc(cc1)c1nc(c2ccccc2)c2cc3ccccc3cc2c1c1ccccc1,5.36662936
934,ASOPEF,C14 H12 S6,CC1=C2SC(SC2=C(C)S1)=C1SC2=C(C)SC(=C2S1)C,6.017525689999999
935,ASOQII,C27 H23 N1 O5,COC(=O)C1=C(C(c2ccccc2)C(Nc2ccccc2)(C(=O)OC)C1=O)c1ccccc1,5.48472677
936,ASOQUU,C28 H25 N1 O5,COC(=O)C1=C(c2ccccc2)C(Nc2ccccc2)(c2ccccc2)C(=C1OC)C(=O)OC,6.0197026
937,ASORAB,C29 H27 N1 O5,CCc1ccc(NC2(C(c3ccccc3)C(=C(C(=O)OC)C2=O)c2ccccc2)C(=O)OC)cc1,5.40390896
938,ASOSOR,C46 H42 N4 O6,COC(=O)N1c2ccccc2C23CCOC12N(C(C)c1ccccc1)C1N(C)c2cccc(OCc4ccccc4)c2C31CCN1C(=O)c2ccccc2C1=O,4.87491964
939,ASOZUE,C22 H12 N2 S2,S1C=CN=C1c1cc2ccc3cc(cc4ccc(c1)c2c34)C1=NC=CS1,5.713302410000001