,ID,formula,smiles,HOMO_LUMO_gap
6085,ECIHUW,C27 H20 N2 O4,OC(CON1C(=O)c2cccc3cccc(C1=O)c23)CN1c2ccccc2c2ccccc12,4.4613065800000005
6086,ECIJEI,C40 H28 N2,c1ccc(cc1)C(=Cc1c2ccccc2c(C=C(c2ccccc2)c2ccccn2)c2ccccc12)c1ccccn1,5.19519763
6087,ECIJUW,C31 H18 F6 N4,FC1(F)C(=C(c2ccc(cc2)N2C=Cc3cccnc23)C(F)(F)C1(F)F)c1ccc(cc1)N1C=Cc2cccnc12,5.77697704
6088,ECILIN,C20 H21 N3 O2 S1,Cc1ccc(O)c(c1)C1=NN(C(C1)c1ccccc1OCC=C)C(N)=S,5.9386126699999995
6089,ECIMAG,C33 H31 N5 S1,CCN(CC)c1ccc(cc1)C=CC(c1ccc(cc1)N(C)C)=C1SC(N=C1c1ccccc1)=C(C#N)C#N,3.6776186899999996
6090,ECIMEK,C37 H38 N4 O1,CN(C)c1ccc(cc1)C(=CC=C(C#N)C(c1ccccc1)=C(C#N)C#N)C=C1C=C(OC(=C1)C(C)(C)C)C(C)(C)C,3.8338120399999998
6091,ECIMIO,C36 H37 N3 O1,CN(C)c1ccc(cc1)c1cc(C=C2C=C(OC(=C2)C(C)(C)C)C(C)(C)C)c(C#N)c(c2ccccc2)c1C#N,5.34839774
6092,ECIQIQ,C17 H16 N2 O4,OCC(O)CN1C=CC(C=C1)=C1C(=O)ON=C1c1ccccc1,5.19410917
6093,ECIQUE,C34 H24 Cl2 N2 O3,Cc1ccc2NC(=O)C3(C4C=Cc5ccccc5N4C(C3C(=O)c3ccc(Cl)cc3)C(=O)c3ccc(Cl)cc3)c2c1,5.3772418
6094,ECIRAL,C34 H25 F1 N2 O3,Cc1ccc(cc1)C(=O)C1C(N2C=Cc3ccccc3C2C21C(=O)Nc1ccc(F)cc21)C(=O)c1ccccc1,5.50812856
6095,ECIREP,C40 H27 Cl3 N2 O3,Clc1ccc(cc1)C(=O)C1C(C(=O)c2ccc(Cl)cc2)C2(C3N1C=Cc1ccccc31)C(=O)N(Cc1ccccc1)c1ccc(Cl)cc21,5.36472456
6096,ECIRIT,C37 H26 Cl1 N3 O3,Cc1ccc2NC(=O)C3(C4C=Cc5ccc6cccnc6c5N4C(C3C(=O)c3ccc(Cl)cc3)C(=O)c3ccccc3)c2c1,5.41697042
6097,ECITIU01,C26 H22 N4 O4,CCOc1ccccc1NC(=O)C1=Cc2ccccc2C(=NNc2ccc(cc2)C(N)=O)C1=O,4.45395951
6098,ECITOA,C27 H24 N4 O4,CCOc1ccccc1NC(=O)C1=Cc2ccccc2C(=NNc2ccc(cc2C)C(N)=O)C1=O,4.557906999999998
6099,ECITUG,C26 H21 Br1 N4 O4,CCOc1ccccc1NC(=O)C1=Cc2ccccc2C(=NNc2ccc(cc2Br)C(N)=O)C1=O,4.94403655
6100,ECIVES,C26 H21 F1 N4 O4,CCOc1ccccc1NC(=O)C1=Cc2ccccc2C(=NNc2ccc(cc2F)C(N)=O)C1=O,4.16960053
6101,ECIVIW,C26 H21 Cl1 N4 O4,CCOc1ccccc1NC(=O)C1=Cc2ccccc2C(=NNc2ccc(cc2Cl)C(N)=O)C1=O,4.260214449999999
6102,ECMALA,C13 H11 Cl1 N2 O4,CCOC(=O)N1C(=O)C(=C(Nc2ccccc2)C1=O)Cl,6.11739148
6103,ECMPRM,C21 H28 N2 O4,CCOC(=O)C1=C(C)C(=C(N1)C=C1N=C(C(=O)OCC)C(=C1CC)C)CC,4.65341896
6104,ECNTPO,C18 H17 N1 O4 S1,CCN(CC)C1=C(C(=O)OC)C2=C(S1)C(=O)c1ccccc1C2=O,4.82811605
6105,ECOJUC,C19 H17 N3,CN1C(=CC=C1C=Cc1ccncc1)C=Cc1ccncc1,5.01886786
6106,ECONUG,C13 H12 N4 O2,Nc1ccc(cc1)C(=O)NNC(=O)c1ccccn1,6.16011334
6107,ECORUJ,C10 H8 N4 O2,COC1=CC(=NC#N)C(=CC1=NC#N)OC,5.33860164
6108,ECOVEA,C16 H21 N3 O3 S1,COC(=O)C=C1SC(=NN=C(C)C2CCC(=CC2)C)N(C)C1=O,5.76119444
6109,ECPHOP,C21 H20 Cl2 N4 O5,CCOC(=O)C(=NNc1ccccc1Cl)C(=O)C(=NNc1ccccc1Cl)C(=O)OCC,5.658607529999999
6110,ECUHEP,C28 H20 As2 O4,O=C([As]([As](C(=O)c1ccccc1)C(=O)c1ccccc1)C(=O)c1ccccc1)c1ccccc1,6.13507887
6111,ECUHUI,C30 H23 N2 O3 P1,O=C1C=C(Nc2ccccc2)C(=O)C(=C1Nc1ccccc1)P(=O)(c1ccccc1)c1ccccc1,5.28798846
6112,ECUJAQ,C30 H21 F2 N2 O3 P1,Fc1ccc(NC2=CC(=O)C(=C(C2=O)P(=O)(c2ccccc2)c2ccccc2)Nc2ccc(F)cc2)cc1,5.222409020000001
6113,ECUJEU,C32 H27 N2 O3 P1,Cc1ccc(cc1)P(=O)(c1ccc(C)cc1)C1=C(Nc2ccccc2)C(=O)C=C(Nc2ccccc2)C1=O,5.1600949499999995
6114,ECUMEV,C22 H15 Br1,Brc1ccc(cc1)C=Cc1c2ccccc2cc2ccccc12,5.40145993
6115,ECUMIY02,C16 H18 N2,Cc1ccc(cc1C)N=Nc1ccc(C)c(C)c1,6.160657570000001
6116,ECUNAR,C42 H38,CC(C)(C)c1cc(c2c(c3ccccc3)c(c3ccccc3)c(c3ccccc3)c3c4ccccc4c1c23)C(C)(C)C,5.588946379999999
6117,ECUNEV,C46 H48,CC(C)(C)c1cc(c(c2c(c3ccccc3)c(c3ccccc3)c(c3ccccc3)c(c3ccccc3)c12)C(C)(C)C)C(C)(C)C,5.7296292300000005
6118,ECUNIZ,C46 H46 Br2,CC(C)(C)c1cc(c(c2c(c3ccccc3)c(c3ccc(Br)cc3)c(c3ccc(Br)cc3)c(c3ccccc3)c12)C(C)(C)C)C(C)(C)C,5.72309851
6119,ECUPUQ,C28 H25 N1 S1,CC1=C2N(c3ccccc13)C1(CCCC1)C(=C2c1ccccc1)Sc1ccccc1,5.720921590000001
6120,ECUQEB,C26 H23 N1 O1 S1,COc1ccc2N3C(=Cc2c1)C(=C(Sc1ccccc1)C3(C)C)c1ccccc1,5.8107191700000005
6121,ECUQIF,C30 H29 N1 S1,CC1=C2N(c3ccccc13)C1(CCCCCC1)C(=C2c1ccccc1)Sc1ccccc1,5.71384663
6122,ECUSON,C40 H52 O8,CCCCOc1c(OC)cc2cc(OC)c(OCCCC)c3c2c1c1c(OCCCC)c(OC)cc2cc(OC)c(OCCCC)c3c12,5.22268113
6123,ECUTAA,C29 H27 N1 S1,CC1=C2N(c3ccccc13)C1(CCCCC1)C(=C2c1ccccc1)Sc1ccccc1,5.9086801499999995
6124,ECUTEE,C40 H40 N4 O4,CCCCOc1c(cc2cc(C#N)c(OCCCC)c3c4c(OCCCC)c(cc5cc(C#N)c(OCCCC)c(c1c23)c45)C#N)C#N,4.89886565
6125,ECUWAA,C9 H5 N1 S6,N#CC1=CSC(S1)=C1SC2=C(SCCS2)S1,5.3222748
6126,ECUZIM,C14 H12 N2 O1,CON=C1c2ccccc2Nc2ccccc12,5.836297869999999
6127,EDAFAS,C16 H14 N2 O3,O=C1C(=O)C(=C1N1CCOCC1)C1=CNc2ccccc12,5.79493656
6128,EDAJOK,C45 H34 N4 O4,COC(=O)c1ccc(cc1)N(c1ccc(C=Cc2ccc(cc2)c2cc(nc(c2)c2ccccn2)c2ccccn2)cc1)c1ccc(cc1)C(=O)OC,5.69670346
6129,EDAKAX,C33 H24 N4,c1ccc(cc1)N(c1ccccc1)c1ccc(cc1)c1cc(nc(c1)c1ccccn1)c1ccccn1,5.9018773
6130,EDAMUU,C17 H14 N2 O1,Cc1cccnc1C(=O)Nc1cccc2ccccc12,6.02623334
6131,EDAPOR,C25 H21 N1 O1,CC1=C2C(C(CN2c2ccccc12)C(=O)c1ccccc1)c1ccccc1,5.65452581
6132,EDAPUX,C26 H23 N1 O2,COc1ccc(cc1)C1C(CN2c3ccccc3C(=C12)C)C(=O)c1ccccc1,5.78976639
6133,EDAQAE,C26 H21 N1 O3,CC1=C2C(C(CN2c2ccccc12)C(=O)c1ccccc1)c1ccc2OCOc2c1,5.71575143
6134,EDAQIM,C32 H27 N1 O2,O=C(C1CN2c3ccccc3C3(CCOC23C1c1ccccc1)c1ccccc1)c1ccccc1,6.1399769200000005
6135,EDAROT,C34 H26 I4 N2 O4,CCC(CC)N1C(=O)c2c(I)cc3c4cc(I)c5C(=O)N(C(CC)CC)C(=O)c6c(I)cc(c7cc(I)c(C1=O)c2c37)c4c56,4.3576312
6136,EDAXEM,C22 H24 N2 O3,COc1cc(OC)c(C=CC2=CC(CC(C)(C)C2)=C(C#N)C#N)c(OC)c1,4.83165353
6137,EDAZAK,C30 H20 N6,N#Cc1ccc(cc1)C=NN=C(c1ccccc1)C(=NN=Cc1ccc(cc1)C#N)c1ccccc1,6.1394327
6138,EDAZEP,C30 H22 O2,CC(=O)c1ccc(cc1)C(c1ccc(cc1)C(C)=O)=C1c2ccccc2c2ccccc12,5.557381169999999
6139,EDECUL,C7 H10 N2 O2 Se1,CCN1C(=O)C(=O)N(CC)C1=[Se],5.6512604500000005
6140,EDEDAS,C15 H11 N3 O1 S1,CC1=C(C=C2C(=O)Nc3ccccc23)N2C=CSC2=N1,5.7562964
6141,EDEJOP,C50 H30 S5,S(c1ccccc1)c1cc2c(Sc3ccccc3)cc3c(Sc4ccccc4)cc4c(Sc5ccccc5)cc5c(Sc6ccccc6)cc1c1c2c3c4c51,5.38975903
6142,EDEJUT,C19 H20 N4 O1,CN1N(C(C)=O)C(=Nc2ccc(C)cc2)C1=Nc1ccc(C)cc1,5.75901753
6143,EDEKAA,C19 H20 N4 O1,CN1N=C(C)OC(=Nc2ccc(C)cc2)C1=Nc1ccc(C)cc1,5.96745674
6144,EDEKEE,C19 H17 F3 N4 O1,CN1N=C(OC(=Nc2ccc(C)cc2)C1=Nc1ccc(C)cc1)C(F)(F)F,6.02296796
6145,EDELOR,C42 H26 O1,CC(C)C1=C2C(=O)c3ccccc3C2=C=C=C(C#CC(=C=C=C(C#C1)c1ccccc1)c1ccccc1)c1ccccc1,3.9298682200000004
6146,EDEMAC,C17 H13 F3 O3,OC(=CC(=O)C(F)(F)F)c1ccc(OCc2ccccc2)cc1,6.11467034
6147,EDEMEG,C22 H19 F1 N2,Cc1ccc(cc1)C1CC(=NN1c1ccccc1)c1ccc(F)cc1,5.94922512
6148,EDEQEK,C15 H8 Br2 N2 O3,Oc1c(Br)cc(Br)cc1C=NN1C(=O)c2ccccc2C1=O,5.91711568
6149,EDEQUA,C26 H21 N3 O2,CC(=O)C(=CNc1cccc2nc(c3ccccc3)c(nc12)c1ccccc1)C(C)=O,5.60853857
6150,EDEXAP,C17 H13 F3 N2 O2,COc1ccc(cc1)N=C1c2cc(OC)ccc2N=C1C(F)(F)F,5.287172109999998
6151,EDIBEB01,C30 H22 N2 O2,O=C1c2ccccc2N(Cc2ccccc2)C2=C1N(Cc1ccccc1)c1ccccc1C2=O,5.2199599899999996
6152,EDICUP,C13 H10 N4 O1 S1,Oc1ccccc1[N-]C1=N[N+](=NS1)c1ccccc1,5.172612190000001
6153,EDIDAW,C19 H14 N4 O2 S1,Oc1ccccc1Oc1ccccc1[N-]C1=N[N+](=NS1)c1ccccc1,5.30785277
6154,EDIDEA,C14 H10 N4 O2 S1,OC(=O)c1ccccc1[N-]C1=N[N+](=NS1)c1ccccc1,4.99818721
6155,EDIDIE,C15 H15 N5 S1,CN(C)c1ccccc1[N-]C1=N[N+](=NS1)c1ccccc1,5.20934755
6156,EDIDUR,C40 H44 N2 O7,Cc1cc2CC(=C)Cc3cc(C)cc(C=Nc4ccccc4OCCOCCOCCOCCOc4ccccc4N=Cc(c1)c2O)c3O,5.84963144
6157,EDIGAC,C26 H23 B1 F2 N4 O1,CC1=CC(=C2N1[B-](F)(F)[N+]1=C(C)C=C(C)C1=C2C1=C(N=C2C=CC=CN12)c1ccccc1O)C,4.63627578
6158,EDIGEG,C27 H25 B1 F2 N4 O2,COc1ccc(c(O)c1)C1=C(N2C=CC=CC2=N1)C1=C2[N+](=C(C)C=C2C)[B-](F)(F)N2C(=CC(=C12)C)C,4.65260261
6159,EDIMEJ,C24 H24,C1C2CC1C1=C3C4CC(C4)C3=C3C4CC(C4)C3=C3C4CC(C4)C3=C21,5.277376019999999
6160,EDIQOA,C24 H33 N3 O2,CN(C)c1ccc(cc1)C=NN=Cc1c(O)c(O)c(cc1C(C)(C)C)C(C)(C)C,5.5146593
6161,EDITIV,C28 H24 N2 O2,CCN(CC)CCN1C(=O)c2ccc3c4cccc5cccc(c6ccc(C1=O)c2c36)c45,4.44824511
6162,EDIWAP,C18 H19 N1,CC1C(=C(C)C(=C1c1cccc2cccnc12)C)C,5.65643061
6163,EDIZAU,C38 H34 N4 O4,COc1ccc(cc1)N(c1ccc(OC)cc1)c1ccc(nc1)c1ccc(cn1)N(c1ccc(OC)cc1)c1ccc(OC)cc1,5.7707184300000005
6164,EDOBUX,C30 H12 F10 N2 O2,Fc1c(F)c(F)c(CN2c3ccccc3C(=O)C3=C2C(=O)c2ccccc2N3Cc2c(F)c(F)c(F)c(F)c2F)c(F)c1F,5.33506415
6165,EDOMUI,C8 H9 N1 O3,CNC1=CC(=O)C(=C(C)C1=O)O,5.607722229999999
6166,EDONAP,C14 H17 N1 O4,COC1=CC(=O)C(Nc2ccccc2)C(C)(O)C1O,6.16882099
6167,EDONOB,C24 H26 N6 O10,COC(=O)C1=NC(=NN1C1OC(COC(C)=O)C(OC(C)=O)C1OC(C)=O)N1C=C(N=N1)c1ccc(OC)cc1,6.06106391
6168,EDOPEU,C18 H17 N3 O2,COc1ccc(cc1)C(=O)CN1N=C(C=C1N)c1ccccc1,5.72201004
6169,EDORIA,C11 H6 F6 N2,Nc1ccc2c(c1)nc(cc2C(F)(F)F)C(F)(F)F,6.0093622799999995
6170,EDOROG01,C12 H8 F6 N2,CNc1ccc2c(c1)nc(cc2C(F)(F)F)C(F)(F)F,5.68854004
6171,EDOSAT,C17 H10 F6 N2,FC(F)(F)c1cc(c2ccc(Nc3ccccc3)cc2n1)C(F)(F)F,5.60881069
6172,EDOSOH,C13 H10 F6 N2,CN(C)c1ccc2c(c1)nc(cc2C(F)(F)F)C(F)(F)F,5.642008580000001
6173,EDOTUM,C27 H24 N2 O2,COC1=Nc2c(OC31N(C)c1ccccc1C3(C)C)c1ccccc1c1ccccc21,6.141337490000001
6174,EDOVUP,C20 H12 S5,S1C=CC(=C1)C1=CC=C(S1)C1=CC=C(S1)C1=CC=C(S1)C1=CSC=C1,5.12526437
6175,EDOWAW,C24 H14 S6,S1C=CC(=C1)C1=CC=C(S1)C1=CC=C(S1)C1=CC=C(S1)C1=CC=C(S1)C1=CSC=C1,4.81614304
6176,EDOXAW,C32 H36 N6,CCN(CC)c1ccc(cc1)N=Cc1ccnc(c1)c1cc(ccn1)C=Nc1ccc(cc1)N(CC)CC,5.4898969300000005
6177,EDOXEA,C38 H50 N8,CCCCN(CCCC)c1ccc(cc1)N=Nc1ccnc(c1)c1cc(ccn1)N=Nc1ccc(cc1)N(CCCC)CCCC,5.23655894
6178,EDTAXX01,C10 H16 N2 O8,OC(=O)C[NH+](CC[NH+](CC(O)=O)CC(=O)[O-])CC(=O)[O-],7.030877670000001
6179,EDUGUI,C16 H18 N4 O6 S2,OC(=O)CCNC(=S)NC(=O)c1ccc(cc1)C(=O)NC(=S)NCCC(O)=O,5.54622451
6180,EDUMIZ,C32 H36,CC(C)(C)C#CC(C=CCc1ccccc1)=C(C=CCc1ccccc1)C#CC(C)(C)C,5.73697631
6181,EDUSEE,C22 H22 N2 O1,CCN(CC)c1ccc(C=CC(=O)C=Cc2ccc(cc2)C#N)cc1,4.79491816
6182,EDUSII,C14 H19 N1 O1,CCN(CC)c1ccc(C=CC(C)=O)cc1,5.82650177
6183,EDUWAC,C19 H16 N4 S1,CN1c2ccccc2C(=C1c1ccccc1)N=NC1=NC=C(C)S1,5.2357426
6184,EDUWIL,C21 H16 N4,Nc1ccccc1c1nnc(c2ccccc2)c(n1)c1ccccc1,5.56853784
6185,EDUXUX,C18 H18 Cl2 N2 O2,CCC(=NN=C(CC)c1cc(Cl)ccc1O)c1cc(Cl)ccc1O,5.94568763
6186,EDUYUX,C28 H23 N1 O3 S2,CCOC(=O)C1=C2C=CC=CN2C2=C(SCc3ccc(C)cc3)SC(=C12)C(=O)c1ccccc1,5.15982284
6187,EDUZAG,C29 H24 N2 O2,CC(C)c1ccc(cc1)C1C(OC(=C1C#N)C1=CNc2ccccc12)C(=O)c1ccccc1,6.03630155
6188,EDUZEI,C34 H50,CCCc1c(CCC)c(CCC)c2cc3c(CC)c(CC)c(CC)c(CC)c3cc2c1CCC,5.28390675
6189,EDUZIN,C24 H20 N2 S3,CC1=CC=C(S1)C=Nc1ccc(Sc2ccc(cc2)N=CC2=CC=C(C)S2)cc1,5.8689515299999995
6190,EDUZOT,C9 H7 Cl1 N2 S2,CC1=CN=C(S1)N=CC1=CC=C(Cl)S1,5.96010967
6191,EDUZUB,C35 H24 N2 O7,COC(=O)c1ccccc1C(=O)C1=Nc2cc(C)ccc2OC21Oc1ccc(C)cc1NC1=C2C(=O)c2ccccc2C1=O,4.90838963
6192,EFABAR,C41 H36 N2 O7,COC(=O)c1ccccc1C(=O)C1=Nc2cc(ccc2OC21Oc1ccc(cc1NC1=C2C(=O)c2ccccc2C1=O)C(C)(C)C)C(C)(C)C,4.9981872
6193,EFACAR,C15 H14 N2 O2 S1,COc1ccccc1NC(=S)NC(=O)c1ccccc1,5.927183889999999
6194,EFAFAU,C21 H23 N1 O6 S1,CCOC(=O)C(C#N)C(CC(=O)C1=CC=CS1)c1cc(OC)c(OC)c(OC)c1,6.38950532
6195,EFAHAV,C30 H24 N2,Nc1c(N)c(ccc1c1ccc(cc1)c1ccccc1)c1ccc(cc1)c1ccccc1,5.70405053
6196,EFAHEA01,C33 H29 N3 O5,COc1ccc(cc1)N1C(C2OC3(O)c4ccccc4C(=O)C43N3CCCC3CC24C#N)C(C1=O)c1ccccc1,5.76500403
6197,EFAJED,C24 H34 N2 O5,CCC(C)C(NC(=O)C1=Cc2ccc(cc2OC1=O)N(CC)CC)C(=O)OC(C)(C)C,5.73779266
6198,EFAKUT,C37 H32 Cl2 N2 O2,CN1CC(=Cc2ccc(Cl)cc2)C(=O)C2(C1)C(C1CCCCN1C12C(=O)c2cccc3cccc1c23)c1ccc(Cl)cc1,5.93453097
6199,EFALAB,C22 H16 N2 S1,C=Cc1ccc(cc1)C1=CC=C(c2ccc(C=C)cc2)C2=NSN=C12,5.015874610000001
6200,EFALON,C13 H16 N1 O2 P1,CC(C)(C)CN1c2ccccc2P=C1C(O)=O,5.91194552
6201,EFAQEJ,C33 H29 N1 O4,CN1CC2C(C(=O)c3ccccc3OCCCCOc3ccccc23)C21C(=O)c1cccc3cccc2c13,6.05507741
6202,EFATAI,C34 H16 O5,O=C1Oc2ccccc2c2c(C(=O)c3ccccc13)c1c3ccccc3C(=O)c1c1c3ccccc3C(=O)c21,5.847182419999999
6203,EFATEM,C26 H30 N2 O2,CN1C(=Cc2ccccc12)C1C2=C(CC(C)(C)CC2=O)NC2=C1C(=O)CC(C)(C)C2,5.396561879999999
6204,EFATEN,C15 H8 N4 O5,COC(=O)C1(O)NC(=C(C#N)C#N)C(=C1C(=O)C1=CC=CO1)C#N,5.4294876599999995
6205,EFATIR,C20 H12 N6,NC1=C(C#N)C(C(=NN1c1ccccc1)c1ccccc1)=C(C#N)C#N,5.46785571
6206,EFATUA,C12 H11 N3 O2 S1,CC1=CSC(=N1)NN=Cc1ccc2OCOc2c1,6.05181204
6207,EFAVEM,C18 H13 N3,CCN1c2ccccc2c2cc(ccc12)C=C(C#N)C#N,5.59030694
6208,EFAVIQ,C18 H15 N3 S1,CCN1c2ccccc2c2cc(ccc12)C=C(C#N)C(N)=S,5.4066301
6209,EFAVOW,C26 H19 N3 S1,CCN1c2ccccc2c2cc(ccc12)C=C(C#N)C1=NC(=CS1)c1ccccc1,5.34785351
6210,EFAVUE,C17 H12 Cl1 N1 O2,Cc1ccc(NC2=C(Cl)C(=O)c3ccccc3C2=O)cc1,4.9905680199999995
6211,EFAYIT,C19 H18 N4,CC1=NN(c2ccccc2)C2=C1N=C(CCN2)c1ccccc1,6.05181204
6212,EFAYOZ,C19 H17 Cl1 N4,CC1=NN(c2ccccc2)C2=C1N=C(CCN2)c1ccc(Cl)cc1,5.84500551
6213,EFEFED,C28 H24 N4 O2,CCOC(=O)C1=C(N)N2C(=NC(=C2C1c1ccccc1)c1ccccc1)N=Cc1ccccc1,5.51057758
6214,EFEFOK01,C15 H14 N4 O2 S1,Oc1ccccc1C=NNC(=S)NN=Cc1ccccc1O,5.677111259999999
6215,EFELUY,C40 H40 N4,CC(C)C1=CC=C(C)C2=C(C=C(C)C2=C1)N=Nc1cccc2c(cccc12)N=NC1=C2C(=CC=C(C=C2C(=C1)C)C(C)C)C,4.25803753
6216,EFEMUZ,C28 H22 N2 O1,COc1ccc(cc1)C=C(C#N)c1ccc(cc1)N(c1ccccc1)c1ccccc1,5.11165868
6217,EFENIO,C24 H22 N6 O1 S1,CCN(CC)c1ccc(cc1)N=NC1=NC(=C(S1)C=C(C#N)C#N)c1ccc(OC)cc1,4.27354802
6218,EFENOU,C33 H21 F1,Fc1ccc(cc1)c1c2ccccc2c(C2c3ccccc3c3ccccc23)c2ccccc12,5.38676578
6219,EFEQUD,C22 H22 N2 O1,CC(C)C1=CC=C(C)C2=C(C=C(C)C2=C1)N=Nc1ccc(C=O)cc1,4.49858618
6220,EFERIS,C39 H35 Cl2 N3 O2,CN1CC(=Cc2ccc(Cl)cc2)C(=O)C2(C1)C(C1CCCN1C12C(=O)N(Cc2ccccc2)c2ccccc12)c1ccc(Cl)cc1,6.26297238
6221,EFEWAQ,C18 H17 N3 O2,CCCN1C(=O)C(=NNC(=O)c2ccccc2)c2ccccc12,6.02187951
6222,EFEWEU,C19 H19 N3 O2,CCCN1C(=O)C(=NNC(=O)Cc2ccccc2)c2ccccc12,6.0597033300000005
6223,EFEWIY,C19 H19 N3 O2,CCCN1C(=O)C(=NNC(=O)c2cccc(C)c2)c2ccccc12,5.9862326
6224,EFEWOE,C18 H16 Br1 N3 O2,CCCN1C(=O)C(=NNC(=O)c2ccccc2Br)c2ccccc12,6.09208489
6225,EFEWUK,C16 H15 N3 O3,CCCN1C(=O)C(=NNC(=O)C2=CC=CO2)c2ccccc12,5.914122430000001
6226,EFEYAQ,C29 H21 N1 O1 S2,COc1cc2Sc3cc(C)c4ccccc4c3N3c2c(Sc2cc(C)c4ccccc4c32)c1,5.68037663
6228,EFEZIB,C38 H30 B1 N3 O1,CC(C)C(O[B-]12N(N=Cc3ccccc13)c1cccc3cc4ccccc4[n+]2c13)c1c2ccccc2cc2ccccc12,4.114905650000001
6229,EFIBAZ,C21 H16 B1 N3 O1,CO[B-]12N(N=Cc3ccccc13)c1cccc3cc4ccccc4[n+]2c13,4.016400439999998
6231,EFICAY,C42 H38 N4 O6,O=C1CCCCCCCCC(=O)Oc2ccccc2C(=O)C2=CNc3ccccc3N=CC(=CNc3ccccc3N=C2)C(=O)c2ccccc2O1,5.06703201
6234,EFIHIK01,C25 H20 O4,COc1ccc(OC)c2c1ccc1CCc3ccc4C(=O)C(=CC(=O)c4c3c21)C,4.74158384
6235,EFILIO,C18 H18 N6,Cc1cc(C)c2c(CN=C(C)[N-]c3n[n+](nn23)c2ccccc2)c1,5.21397349
6236,EFINUD,C36 H48 N2 O4,CCCCCCCCOC(=O)c1cc(Nc2ccccc2)c(cc1Nc1ccccc1)C(=O)OCCCCCCCC,5.04635136
6237,EFIPAL,C36 H46 I2 N2 O4,CCCCCCCCOC(=O)c1cc(Nc2ccc(I)cc2)c(cc1Nc1ccc(I)cc1)C(=O)OCCCCCCCC,4.96798257
6238,EFIPER,C10 H8 N4,c1ccc(nc1)N=Nc1ccccn1,6.371817930000001
6239,EFIPUH,C16 H14 N4,Nc1nc(c2ccccc2)c(N)c(n1)c1ccccc1,5.751942570000001
6240,EFIQAO,C40 H30 N4,Nc1nc(c2cc(cc(c2)c2ccccc2)c2ccccc2)c(N)c(n1)c1cc(cc(c1)c1ccccc1)c1ccccc1,5.7494935499999995
6241,EFIQES,C20 H10 F12 N4,Nc1nc(c(N)c(n1)c1cc(cc(c1)C(F)(F)F)C(F)(F)F)c1cc(cc(c1)C(F)(F)F)C(F)(F)F,5.4809171800000005
6242,EFIRUG,C36 H26 O1,O=C(C=CC1=C2C=CC=CC=C2c2ccccc12)C(c1ccccc1)(c1ccccc1)c1ccccc1,4.549199359999999
6243,EFIVOG,C16 H15 Cl1 N2 O2,CCOC(=O)C1=C(CCc2ccc(Cl)cc2)C(=CN1)C#N,5.74405127
6244,EFIZAW,C31 H28 O1,COc1ccc(cc1)C#Cc1cc2c(C)cc(C)c3ccc4cc(cc1c4c23)C(C)(C)C,5.29914512
6245,EFIZEA,C26 H14 S6,S1C=CC2=C1SC1=C2C=C(S1)C=Cc1ccc(C=CC2=CC3=C(S2)SC2=C3C=CS2)cc1,5.076828109999999
6246,EFMTPY,C24 H29 N3 O2,CCC1=C(C)C(=O)NC1=CC1=NC(=CC2=C(CC)C(=C(N2)C=O)C)C(=C1C)CC,4.35899177
6247,EFOCUY,C13 H12 N2 O6 S2,OC(=O)CC1=CSC(=[N+]1[O-])NC(=O)CS(=O)(=O)c1ccccc1,6.37780443
6248,EFODUA,C36 H30 N6 O2,CN1N=C(c2ccccc2)C2=C1NC(NC1=C(C2C(=O)c2ccccc2)C(=NN1C)c1ccccc1)C(=O)c1ccccc1,5.90296576
6249,EFOFAI,C26 H20 Cl2 N6,CN1N=C(C)c2c1nc(c1ccc(Cl)cc1)c1nc3N(C)N=C(C)c3c(c3ccc(Cl)cc3)c21,5.41560985
6250,EFOFEL,C23 H24 F2 N2 O2,CC(C)(C)C1=CC(=O)C(=C([O-])C(=C1)C(C)(C)C)c1[nH+]c2cc(F)c(F)cc2nc1,5.11274714
6251,EFOMAQ,C32 H22 N2 O2 S1,Cc1cc(cc(C)c1N1C(=O)c2cccc3cccc(C1=O)c23)N1c2ccccc2Sc2ccccc12,4.14130069
6252,EFONIY,C18 H12 O1,CC(=O)c1ccc2ccc3cccc4ccc1c2c34,5.58622524
6253,EFONOE,C20 H14 O2,CC(=O)c1cc(C(C)=O)c2ccc3cccc4ccc1c2c34,5.307036419999999
6254,EFONUK,C20 H14 O2,CC(=O)c1ccc2ccc3c(ccc4ccc1c2c34)C(C)=O,5.30513163
6255,EFOPAS,C20 H14 O2,CC(=O)c1ccc2ccc3ccc(C(C)=O)c4ccc1c2c34,5.264858779999999
6256,EFOPEW,C22 H16 O3,CC(=O)c1ccc2ccc3c(cc(C(C)=O)c4ccc1c2c34)C(C)=O,5.1399585299999995
6257,EFOPIA,C24 H18 O4,CC(=O)c1cc(C(C)=O)c2ccc3c(cc(C(C)=O)c4ccc1c2c34)C(C)=O,4.955465329999999
6258,EFOSOK,C12 H4 F4 I2 N2,Fc1cc(I)cc(F)c1N=Nc1c(F)cc(I)cc1F,5.88282933
6259,EFUCIU,C18 H21 N3 O2,CCOC(=O)C(=NNc1ccc(cc1)N(C)C)c1ccccc1,5.398466679999999
6260,EFUCOA,C17 H18 N2 O3,CCOC(=O)C(=NNc1ccc(OC)cc1)c1ccccc1,5.81425664
6261,EFUFOD,C27 H29 N5 Se2,CC(C)N1C=CN(Cc2cccc3cc4cccc(CN5C=CN(C(C)C)C5=[Se])c4nc23)C1=[Se],4.447700879999999
6262,EFUKAU,C17 H18 N2 S1,CCN(CC)c1ccc(cc1)C=C(C#N)C1=CC=CS1,5.23438203
6263,EFULOI,C11 H8 N2 S1,S1C(=Cc2ccccc12)N1C=CC=N1,6.35276995
6264,EFUMIC,C17 H11 Cl1 I1 N1 O1 S1,Cc1ccc2nc(Cl)c(C=CC(=O)C3=CC=C(I)S3)cc2c1,5.897795589999999
6265,EFUPAX,C15 H15 N3 O2 S1,COc1ccc(C=NNC(=S)Nc2ccccc2)c(O)c1,6.01235553
6266,EFUPEC,C36 H45 N1 O2,CCCCCCN(CCCCCC)c1ccc(C=Cc2ccc(cc2)C=Cc2ccc(cc2)C(=O)OC)cc1,4.89750508
6267,EFUQUT,C18 H18 N2 O6,CCOC(=O)c1cccc2Oc3cc(O)c(N)c(C(=O)OCC)c3Nc12,4.83002085
6268,EFUQUU,C21 H17 N3 O4,CN1N(C(=O)C(=C1C)NC1=C(C=O)C(=O)Oc2ccccc12)c1ccccc1,6.046641869999999
6269,EFURII,C39 H32 N4 O5,O=C1N(Cc2ccc(OCC3=CN(Cc4cc(OCc5ccccc5)cc(OCc5ccccc5)c4)N=N3)cc2)C(=O)c2ccccc12,6.03031504
6270,EFUROO,C22 H15 N1 O3,O=C1N(Cc2ccc(OCC#C)cc2)C(=O)c2cccc3cccc1c23,5.558741739999999
6271,EFUWUZ,C15 H10 O4 S1,O=C1Oc2ccccc2C=C1C(=O)SCC1=CC=CO1,5.8093585899999995
6272,EGAFAW,C33 H11 F10 N3 O3,Fc1c(F)c(F)c(c(F)c1F)C1=C2C=CC(=N2)Oc2ccc(OC3=NC(=C(C4=CC=C1N4)c1c(F)c(F)c(F)c(F)c1F)C=C3)c(C=O)c2,4.353005270000001
6273,EGAKAA,C32 H20 O8,COC(=O)c1c2ccc3ccc4c(C(=O)OC)c(C(=O)OC)c5ccc6ccc(c1C(=O)OC)c1c6c5c4c3c21,5.58051085
6274,EGALAA,C52 H34 S2,S1C(=CC=C1c1cc(c2ccccc2)c(c2ccccc2)c(c2ccccc2)c1c1ccccc1)C1=CC=C(S1)c1c2ccccc2cc2ccccc12,5.37288798
6275,EGALEE,C56 H34 S2,S1C(=CC=C1C1=CC=C(S1)c1cc(c2ccccc2)c(c2ccccc2)c(c2ccccc2)c1c1ccccc1)C#Cc1ccc2ccc3cccc4ccc1c2c34,4.85750434
6276,EGALUU,C25 H21 N1 O5,COc1ccc2NC3(OC4=C(C(c2c1)C3(C)C)C(=O)Oc1ccccc41)C1=CC=CO1,5.838202659999999
6277,EGANOS,C48 H36 N4,c1ccc(cc1)N(c1ccccc1)c1ccc(cc1)c1cccc(c1)N=Nc1cccc(c1)c1ccc(cc1)N(c1ccccc1)c1ccccc1,5.06458298
6278,EGANUY,C36 H28 N4,c1ccc(cc1)N(c1ccccc1)c1cccc(c1)N=Nc1cccc(c1)N(c1ccccc1)c1ccccc1,5.2417291
6279,EGAQEI,C37 H37 F6 N2 O1 P1 S1,CC(C)c1cc(C(C)C)c(c(c1)C(C)C)P12(OC(c3ccccc13)(C(F)(F)F)C(F)(F)F)N(C(=S)N2c1ccccc1)c1ccccc1,5.94732031
6280,EGARIQ,C15 H15 N1 O2,Cc1ccc([NH+]=Cc2cc(C)ccc2[O-])c(O)c1,5.00335737
6281,EGAZUJ,C13 H10 Cl2 N2 O1,COc1ccc(cc1)C=Cc1cc(Cl)nc(Cl)n1,5.91112917
6282,EGEBAT01,C20 H36 P4 S1,CC(C)(C)C1=PP2C3(SP4C2(C(C)(C)C)C4(P13)C(C)(C)C)C(C)(C)C,5.84636608
6283,EGEBUN,C25 H20,CC1(C)C=CC(C=C1)=C(C#Cc1ccccc1)C#Cc1ccccc1,5.36472456
6285,EGEFAY,C23 H27 N1 O4 S1,Cc1ccc(cc1)S(=O)(=O)N1CC2=CC(C)(C)C3=C(C)C(=O)OC(C)(C)C3=C2C1,5.920653159999999
6286,EGEFII,C40 H28 N4,c1ccc(cc1)C1=CC2=C(C=C(N2c2ccc(cc2)c2ccncc2)c2ccccc2)N1c1ccc(cc1)c1ccncc1,5.42676652
6287,EGEHUV,C22 H18 N2 O2,CCOC(=O)C1=C(c2ccccc2)C2=C(C#N)c3ccccc3N2CC1,5.887727379999999
6288,EGEMAF,C20 H14 N2 O4,Oc1cc2OC(=Nc2cc1NC=C1C=CC=CC1=O)c1ccccc1O,5.089345349999999
6289,EGEMEJ,C28 H18 N2 O4,Oc1ccc2ccccc2c1C=Nc1cc2N=C(Oc2cc1O)c1c(O)ccc2ccccc12,5.3181931
6290,EGERAJ,C25 H31 N1 O2,CCCCC1CCCCC21C=CC1=C(C=C(C)OC1=O)N2Cc1ccccc1,5.89126486
6291,EGEREN,C22 H25 N1 O2,CC1CCCC2(C1)C=CC1=C(C=C(C)OC1=O)N2Cc1ccccc1,5.91684357
6292,EGEXAR,C26 H18 O2,O1C(=Cc2ccccc12)C=Cc1ccc(C=CC2=Cc3ccccc3O2)cc1,5.023221680000001
6293,EGEXEV,C36 H24 O3,O1C(=Cc2ccccc12)C=Cc1cc(C=CC2=Cc3ccccc3O2)cc(C=CC2=Cc3ccccc3O2)c1,5.47275376
6294,EGEXIZ,C46 H30 O4,O1C(=Cc2ccccc12)C=Cc1cc(C=CC2=Cc3ccccc3O2)c(C=CC2=Cc3ccccc3O2)cc1C=CC1=Cc2ccccc2O1,4.6613102600000005
6296,EGIDUT01,C22 H22 O6,COc1ccc(COC(=O)C=CC=CC(=O)OCc2ccc(OC)cc2)cc1,5.69643134
6297,EGIFUY,C17 H11 F2 N1 O1,Fc1ccc(cc1)C(=C1NC(=O)C=C1)c1ccc(F)cc1,5.95956544
6299,EGIHOT,C20 H19 F1 P2 S2,CP(=S)(c1ccccc1)c1cccc(F)c1P(C)(=S)c1ccccc1,5.95521162
6300,EGIJOV,C12 H10 F2 N2 O2,CN1C(=NC(=Cc2cc(F)c(O)c(F)c2)C1=O)C,5.72935713
6301,EGILEL,C44 H37 N1 O8 P2,COC(=O)C1=C(C(=O)OC)P2(c3ccccc3)(c3ccccc3)C(=C(C(=O)OC)P(=C2C1=Nc1ccccc1)(c1ccccc1)c1ccccc1)C(=O)OC,5.731806150000001
6302,EGILIP,C39 H30 N2 O2 P2,O=C1N(c2ccccc2)C(=Nc2ccccc2)C(=P1(c1ccccc1)c1ccccc1)P(=O)(c1ccccc1)c1ccccc1,6.02541699
6303,EGIMAL,C47 H30 O2 S1,CC1(C)c2cc(ccc2S(=O)(=O)c2ccc(cc12)c1ccc2ccc3cccc4ccc1c2c34)c1ccc2ccc3cccc4ccc1c2c34,5.43574628
6304,EGIMEP,C31 H22 O2 S1,CC1(C)c2ccccc2S(=O)(=O)c2ccc(cc12)c1ccc2ccc3cccc4ccc1c2c34,5.49289018