,ID,formula,smiles,HOMO_LUMO_gap
8177,FOMVIO01,C12 H7 N1 O2 S2,O=C1NC(=O)C(=C1C1=CC=CS1)C1=CC=CS1,5.683642000000001
8178,FOMVIP,C30 H28 N6 O2 S2,CCCCCCN1C(=O)C(C2=C1C=C(S2)C1=CC2=C(S1)C(C(=O)N2CCCCCC)=C(C#N)C#N)=C(C#N)C#N,3.79381131
8179,FOMVUZ,C28 H23 N1 O4,CN1CC(c2ccc(C)cc2)C2(COc3ccccc3C2=O)C21C(=O)c1ccccc1C2=O,6.062424469999998
8180,FOMYUC,C13 H16 N2 O3 S1,CC(C)C(NC(=S)NC(=O)c1ccccc1)C(O)=O,6.06922732
8181,FONGAS,C39 H40 N2 O6 S3,CCCCOc1c(OCCCC)c2Sc3c(OCCCC)c(OCCCC)c4SC5=C6C7=C(Sc1c7c2c3c46)C(=O)N(C5=O)c1ccccn1,4.69260335
8183,FONGOF,C14 H14 N4 O3 S1,O=C([O-])C(CC1=CNC=[NH+]1)NC(=S)NC(=O)c1ccccc1,6.24065904
8184,FONJOI,C17 H16 N4 O2,CCOC(=O)N1N=C(NN=C1c1ccccc1)c1ccccc1,6.452363630000001
8185,FONKID,C18 H16 N2 O4 S1,Cc1cc(C)c2C(=O)C3=C(OCCN3S(=O)(=O)c2n1)c1ccccc1,6.04065537
8186,FONKOK,C30 H21 N3 O1,COc1ccc(cc1)C#Cc1ccc(cc1)c1cc(nc(c1)c1ccccn1)c1ccccn1,5.85589007
8187,FONMAX,C13 H10 N2 O2,Oc1ccc(cc1)N=Nc1ccc(C=O)cc1,5.90976861
8188,FONNUU,C28 H21 Br1 F3 N1 O4,CCOC(=O)C1(NC(c2ccccc2)C2(C1c1ccc(Br)cc1)C(=O)c1ccccc1C2=O)C(F)(F)F,6.536991029999999
8189,FONSUY,C34 H30 S8,CCSC1=C(SCC)SC(S1)=C1c2ccccc2c2cc3c(cc12)c1ccccc1C3=C1SC(=C(SCC)S1)SCC,4.77450963
8190,FONTOT,C34 H30 Br2 N2 O2 S2,CC(C)(C)c1ccc(cc1)N1C(=O)C(=C2N(C(=O)C(=C12)C1=CC=C(Br)S1)c1ccc(cc1)C(C)(C)C)C1=CC=C(Br)S1,3.48224095
8191,FONVEM,C20 H16 Cl1 F3 N2 O1,CN1C(=O)C(=NC(CC=Cc2ccccc2)C(F)(F)F)c2cc(Cl)ccc12,5.827862339999999
8192,FONVIQ,C22 H21 F3 N2 O2,COc1ccc(C=CCC(C)(N=C2C(=O)N(C)c3ccccc23)C(F)(F)F)cc1,5.453433680000001
8193,FONWUC,C44 H46 N2 O2 S4,CCCCC(CC)CN1C(=O)C(C2=C1C=C(S2)C1=Cc2ccccc2S1)=C1C(=O)N(CC(CC)CCCC)C2=C1SC(=C2)C1=Cc2ccccc2S1,3.6498630800000003
8194,FONXAJ,C44 H46 N2 O4 S2,CCCCC(CC)CN1C(=O)C(C2=C1C=C(S2)C1=Cc2ccccc2O1)=C1C(=O)N(CC(CC)CCCC)C2=C1SC(=C2)C1=Cc2ccccc2O1,3.77639602
8195,FONYUE,C42 H46 S8,CCCCSC1=C(SCCCC)SC(S1)=C1c2ccccc2c2cc3c(cc12)c1ccccc1C3=C1SC(=C(SCCCC)S1)SCCCC,4.71682148
8196,FONZEP,C36 H39 Br3 N6 O3,CCc1cc(Br)cc(CC)c1N=Nc1c(O)c(N=Nc2c(CC)cc(Br)cc2CC)c(O)c(N=Nc2c(CC)cc(Br)cc2CC)c1O,5.14567291
8197,FONZUG,C21 H19 N1 O1,CC1=CC=C2N3C(=O)C=CC=C3C(=C2C1(C)C)c1ccccc1,4.75546165
8198,FOPCOC,C16 H16,C1CC2=CC=CC=C(C2)C2=CC=CC=C1C2,5.84418916
8199,FOPDAS,C20 H16 Br1 N1 O1,CC1(C)C=CC=C2N3C(=O)C=C(Br)C=C3C(=C12)c1ccccc1,4.82457857
8200,FOPDEW,C22 H19 N1 O1,O=C1C=CC=C2N1C1=CC=CC3(CCCC3)C1=C2c1ccccc1,4.81206133
8201,FOPDIA,C20 H16 Cl1 N1 O1,CC1(C)C=CC=C2N3C(=O)C=C(Cl)C=C3C(=C12)c1ccccc1,4.87927346
8202,FOPDOG,C18 H15 N1 O1 S1,CC1(C)C=CC=C2N3C(=O)C=CC=C3C(=C12)C1=CSC=C1,4.76308084
8203,FOPDUM,C24 H19 N1 O1,CC1(C)C=CC=C2N3C(=O)c4ccccc4C=C3C(=C12)c1ccccc1,4.8000883199999995
8204,FOPFAU,C20 H17 N1 O1,CC1(C)C=CC=C2N3C(=O)C=CC=C3C(=C12)c1ccccc1,4.77750288
8205,FOPFIA,C32 H24 N6,C(N1C=CC(=N1)c1ccccn1)c1cc2cc3ccccc3cc2cc1CN1C=CC(=N1)c1ccccn1,5.50214206
8206,FOPHOK,C23 H25 B1 Cl2 F2 N2,CCC1=C(C)N2C(=C1C)C(=C1[N+](=C(C)C(=C1C)CC)[B-]2(F)F)c1c(Cl)cccc1Cl,4.648793019999999
8207,FOPMAB,C26 H21 N1,Nc1cccc(c1)C(c1ccccc1)=C(c1ccccc1)c1ccccc1,5.9288165799999994
8208,FOPSEL,C35 H45 N3 O1,CC(C)c1cccc(C(C)C)c1N1CC[N+](=C1C(=O)[N-]Cc1ccccc1)c1c(cccc1C(C)C)C(C)C,6.63848949
8209,FOPYTS02,C7 H8 N4 S1,NC(=S)NN=Cc1ccncc1,5.76201079
8210,FOQBAQ,C10 H13 N1 O3 Se1,COc1cc(cc(OC)c1OC)C(N)=[Se],5.7094928099999995
8211,FOQBEU,C11 H9 N1 Se1,NC(=[Se])c1ccc2ccccc2c1,5.27356642
8212,FOQBIY,C11 H9 N1 Se1,NC(=[Se])c1cccc2ccccc12,5.66595459
8214,FOQFEY,C18 H13 Cl1 N2 O1,CCN1c2ccccc2c2cc3nc(Cl)c(C=O)cc3cc12,5.28417886
8215,FOQJEC01,C15 H18 N2 O2,CCN1CCN(CC)C21C(=O)c1ccccc1C2=O,5.68282565
8216,FOQJIE,C36 H28,C1Cc2ccc(CCc3ccc1cc3C=C1C=Cc3ccccc13)cc2C=C1C=Cc2ccccc12,5.41914733
8217,FOQKAX,C11 H11 N1 O6 S2,CCOC(=O)C1=C2SS(=O)C(=C2N(C)C1=O)C(=O)OC,5.95983756
8218,FOQKEB,C11 H11 N1 O7 S2,CCOC(=O)C1=C2SS(=O)(=O)C(=C2N(C)C1=O)C(=O)OC,6.041199600000001
8219,FOQKIF,C9 H8 O6 S3,CCOC1=C2C(=C(SS2(=O)=O)C(=O)OC)SC1=O,5.412888710000001
8220,FOQLUU,C22 H12 N6,CC1=NN(c2ccccc2)c2nc3c4ccccc4C(c3nc12)=C(C#N)C#N,4.89451183
8221,FOQPEJ,C22 H16 F1 N5 S1,CN1C=C(c2ccccc12)c1nc(NN=Cc2ccc(F)cc2)nc2C=CSc12,5.89534657
8222,FOQVUE,C38 H40 N4 O4,CCOc1ccccc1NC1=CC(=Nc2ccccc2OCC)C(=CC1=Nc1ccccc1OCC)Nc1ccccc1OCC,4.9111107700000005
8223,FOQXOA,C26 H21 N1 O3,COc1ccc(cc1)C(=O)C=C(C=C(C#N)c1ccc(OC)cc1)c1ccccc1,5.827862340000001
8224,FOQZER,C18 H12 N2 O1,[O-]c1ccc2ccccc2c1C=[NH+]c1ccc(cc1)C#N,5.16608145
8225,FOQZIV,C22 H25 Cl2 N1 O6,CC(=Nc1ccc2OCCOCCOCCOCCOc2c1)c1cc(Cl)cc(Cl)c1O,5.8841899
8226,FOQZUJ,C30 H36 O6 S8,CSC1=C(SC)SC(S1)=C1SC2=C(SCCOc3cc4ccccc4cc3OCCOCCOCCOCCOCCS2)S1,5.55112255
8227,FORBEV,C16 H10 F3 N1 O1,FC(F)(F)c1ccc(cc1)C1=CC=C2C=CC=CN2C1=O,5.47792392
8228,FORFOH,C15 H9 Cl1 N2 O4 S1,COC(=O)C1=CC(=O)N2C3=C(N=C2S1)c1cc(Cl)ccc1OC3,4.987846879999999
8229,FORIZT10,C4 H4 N2 O1 S1,O=CC1=CNC(=S)N1,5.7976577
8230,FORJUT,C34 H38 N2,CCN(CC)c1ccc(cc1)C(c1ccc(cc1)N(CC)CC)=C(c1ccccc1)c1ccccc1,5.66187288
8231,FORKAA,C34 H36 F2 N2,CCN(CC)c1ccc(cc1)C(c1ccc(cc1)N(CC)CC)=C(c1ccc(F)cc1)c1ccc(F)cc1,5.57071475
8232,FORKAB,C21 H14 S1,CC1=CC(=CS1)c1ccc2ccc3cccc4ccc1c2c34,5.23302146
8233,FORKEF,C22 H16 S1,CCC1=CC(=CS1)c1ccc2ccc3cccc4ccc1c2c34,5.64745085
8234,FORKIJ,C23 H18 S1,CCCC1=CC(=CS1)c1ccc2ccc3cccc4ccc1c2c34,5.55329946
8235,FORKOP,C25 H22 S1,CCCCCC1=CC(=CS1)c1ccc2ccc3cccc4ccc1c2c34,5.52200637
8236,FORKUV,C26 H24 S1,CCCCCCC1=CC(=CS1)c1ccc2ccc3cccc4ccc1c2c34,5.59874248
8237,FORMIK,C4 H4 N6 O4,NC1=[N+]([O-])ON=C1C1=NO[N+](=C1N)[O-],5.90242153
8238,FORNUX,C15 H11 N1 O1,O=C1N2C=CC=CC2=CC=C1c1ccccc1,5.48391043
8239,FORNUY,C21 H19 N3 O2,O=Cc1cc2ccccc2nc1N1CCN(CC1)C(=O)c1ccccc1,6.08691472
8240,FORPAF,C15 H10 I1 N1 O1,Ic1ccc(cc1)C1=CC=C2C=CC=CN2C1=O,5.5010536100000005
8241,FORPNT,C14 H12 O2,O=CC1=CC2=CC=CC=C(C2)C=C(C1)C=O,5.755480049999999
8242,FORROT,C42 H34 O7,CCOC(=O)C1=C2c3ccccc3C(=C2C2(C=C(c3ccccc3)c3ccccc23)C(C(=O)OCC)(C(=O)OCC)C1=O)c1ccccc1,5.09152226
8243,FORRUZ,C22 H18 O2,OC(=O)C1=C(C=C(c2ccccc2)c2ccccc2)C2CC1C=C2,5.66404979
8244,FORSUC,C38 H40 N4,CCc1ccccc1NC1=CC(=Nc2ccccc2CC)C(=CC1=Nc1ccccc1CC)Nc1ccccc1CC,5.0158746
8245,FORTCH,C19 H16 O2,O=CC1=CC2=CC3=CC=CC=C(C3)C=C(C2)C=C(C1)C=O,5.12608072
8246,FORVEP,C39 H26 Cl2 N2 O1,Cc1ccc(N2N=CC(=C(Cl)C2=O)Cl)c2c1c(c1ccccc1)c(c1ccccc1)c(c1ccccc1)c2c1ccccc1,5.92772812
8247,FORWER,C40 H46 F1 N3 O1,COC(c1ccccc1F)=C1N([N-][N+](=C1c1ccccc1)c1c(cccc1C(C)C)C(C)C)c1c(cccc1C(C)C)C(C)C,4.594642370000001
8248,FOSBUN,C26 H20 Cl1 N3 O1,Clc1ccc(cc1)C(=O)NN=Cc1ccc(cc1)N(c1ccccc1)c1ccccc1,5.64064801
8249,FOSNAC,C18 H14 Br1 N3 O2 S1,BrC1=CC23CC(NC4=C2C2=NCCC5=CNC(=C25)C4=O)SC3CC1=O,5.16526511
8250,FOSREK,C8 H6 Br2 N2 O2,CC1=C(Br)C(=O)N2N1C(=O)C(=C2C)Br,6.10160887
8251,FOSWIU,C54 H34 N4,c1ccc(cc1)N1C(=Nc2c3ccccc3c3ccccc3c12)c1ccc(cc1)c1ccc(cc1)C1=Nc2c3ccccc3c3ccccc3c2N1c1ccccc1,5.611531820000001
8252,FOSXUJ,C24 H18 N2 O1,COc1ccc(cc1)C1=CC2=Nc3ccccc3N2C(=C1)c1ccccc1,5.7881337199999985
8253,FOSYAN,C19 H20 O3 S1,CC1=CC(=C(C)O1)C(C)=C1C(=O)SC(=O)C1=C(C1CC1)C1CC1,5.9527626
8254,FOTFOK,C20 H38 P6,CC(C)(C)C1P=C(P2P1P1P=C(P2C1C(C)(C)C)C(C)(C)C)C(C)(C)C,5.65343735
8255,FOTGAY,C20 H20 N2 O2 S2,CCCCCCN1C(=O)C2=C(NC(=O)C2=C1C1=CC=CS1)C1=CC=CS1,4.18375045
8257,FOTMOR,C22 H20 N6 O2,CN(N=Cc1cnc(C=NN(C)C(=O)c2ccccc2)cn1)C(=O)c1ccccc1,5.99684504
8258,FOTNOT,C16 H16 Cl1 N1 O4,COC(=O)C1=CC(=CCC(N1)c1ccc(Cl)cc1)C(=O)OC,6.14351441
8259,FOTPEM,C15 H15 N1 O3,COc1ccccc1NC1=CC(=O)C(=C(C)C1=O)C,4.94757403
8260,FOTPIQ,C16 H17 N1 O3,CCOc1ccccc1NC1=CC(=O)C(=C(C)C1=O)C,4.90458004
8261,FOTPOW,C16 H17 N1 O4,COc1cc(NC2=CC(=O)C(=C(C)C2=O)C)cc(OC)c1,5.07138584
8262,FOTPUC,C16 H15 N1 O4,CC1=C(C)C(=O)C(=CC1=O)Nc1ccc2OCCOc2c1,5.0305687599999995
8263,FOTTEP,C20 H18 N2 O1,CC(C)(C)c1ccc(cc1)C1=Cc2nc3ccccc3nc2O1,5.7701742
8264,FOTYAP,C22 H26 O6,COc1ccc(C=CC=Cc2ccc(OC)c(OC)c2OC)c(OC)c1OC,5.38785424
8265,FOTYIW,C38 H48 N4 S1,CCC1=C(C)C2=CC3=NC4=CC5=C(CC)C(=C(N5)C=C5N=C(C=C1N2)C(=C5C)CCCCCSCCCCCC4=C3C)C,4.15572272
8266,FOTYOC,C36 H44 N4 S1,CCC1=C(C)C2=CC3=NC4=CC5=C(CC)C(=C(N5)C=C5N=C(C=C1N2)C(=C5C)CCCCSCCCCC4=C3C)C,4.1706889799999995
8267,FOVDOK,C34 H22 N4 O4,O=C1N(c2ccc(cc2)N2C(=O)C(=C([O-])[n+]3ccccc23)c2ccccc2)c2cccc[n+]2C(=C1c1ccccc1)[O-],4.53749846
8269,FOVMIN,C15 H12 N2 O5 S1,Oc1ccc(NC(=O)CN2C(=O)c3ccccc3S2(=O)=O)cc1,6.19031799
8272,FOVQEN,C16 H15 N3,N#CC(=Cc1cc2CCCN3CCCc(c1)c23)C#N,5.2694847099999995
8273,FOVRUE03,C18 H12 N2 O1,Oc1ccc2ccccc2c1C=Nc1ccccc1C#N,5.5894906099999995
8274,FOVRUG,C24 H22 N4 O4,COc1ccc(c(OC)n1)c1ccc(cn1)c1ccc(nc1)c1ccc(OC)nc1OC,5.8591554200000004
8275,FOVSUF,C16 H14 N4 O1,Cc1ccc(N)cc1Oc1nccc(n1)c1cccnc1,5.68364199
8276,FOVTIU,C17 H12 N2,N#CC(C#N)=C1CCCc2c3ccccc3ccc12,5.78269144
8277,FOVVAQ,C33 H36 O8,CC(C)=CCC12OC(C)(C)C3CC(C=C4C(=O)c5c(OC(=O)C67CCC(C)(C(=O)O6)C7(C)C)cccc5OC134)C2=O,6.0099065099999995
8278,FOVVOE,C20 H13 F1 N4 O1,Fc1ccc(cc1)C(=O)C1=CC2=Cc3ccccc3N2CC2=CN=NN12,5.92201373
8279,FOVWAO,C14 H17 N3 O1 S1,CN(C)CCNC(=O)C1=Cc2ccccc2SC1=N,6.10324155
8280,FOVXUK,C13 H9 N3 S2,S1C=CC=C1C=NC1=NN=C(S1)c1ccccc1,5.843644940000001
8281,FOVYAS,C24 H24 N2 O2,CCCCCCN1C(=O)C2=C(NC(=O)C2=C1c1ccccc1)c1ccccc1,4.63545944
8282,FOVYUL,C24 H20 N2 S4,C(CSc1ccccc1N=CC1=CC=CS1)Sc1ccccc1N=CC1=CC=CS1,5.79820193
8283,FOWBIF,C27 H20 Br1 N1 O3,CCOC(=O)C1=C(N(c2ccc(Br)c3ccccc23)c2cccc(O)c12)c1ccccc1,5.81942681
8284,FOWFOP,C26 H16 N2 O2,O=C1N(C(=O)c2ccccc12)c1ccccc1N1c2ccccc2c2ccccc12,5.397378219999999
8285,FOWFUV,C26 H16 N2 O2,O=C1N(c2ccc(cc2)N2c3ccccc3c3ccccc23)C(=O)c2ccccc12,5.26268187
8286,FOWGAC,C26 H16 N2 O2,O=C1N(c2cccc(c2)N2c3ccccc3c3ccccc23)C(=O)c2ccccc12,5.11274714
8287,FOWJOT,C22 H28 N6,CCN1c2ccccc2N(CC)C1=NN=C1N(CC)c2ccccc2N1CC,5.96636828
8288,FOWLAH,C18 H20 N6,CN1c2ccccc2N(C)C1=NN=C1N(C)c2ccccc2N1C,5.887455269999999
8289,FOWNAJ,C46 H34 N2,Cc1cc(C)c(c(C)c1)C(C1=CC=C(N1)c1c2ccccc2cc2ccccc12)=C1C=CC(=N1)c1c2ccccc2cc2ccccc12,4.66702465
8290,FOWNEM,C14 H6 F7 N3,CN(C)c1c(F)c(F)c2nc3c(F)c(F)c(F)c(F)c3nc2c1F,4.987574759999999
8291,FOWPAJ,C26 H28 N2 O2,CC1(NC23CC4CC(CC(C4)C2)C3)C(=O)N(c2ccccc2)c2ccccc2C1=O,6.4597107000000005
8292,FOWQOZ,C31 H23 N1 O4,OC1(C(=O)c2ccccc2C1=O)C1(Cc2ccccc2)C(=O)N(Cc2ccccc2)c2ccccc12,5.73561574
8293,FOWQUF,C21 H19 N1 O4,CC(=O)C1=C(Nc2ccc(C)cc2C)OC(=C1)C(=O)c1ccccc1O,5.607994339999999
8294,FOWRER,C40 H32 N4 O2,CCN1C(=O)C(=Cc2ccc3ccccc3n2)c2cc(ccc12)C1(Cc2ccc3ccccc3n2)C(=O)N(CC)c2ccccc12,5.34839773
8295,FOWROB,C14 H12 Cl1 N1 O3,COC1=CC(C=C(OC)C1=O)=Nc1ccccc1Cl,5.54785719
8296,FOWSIU,C33 H30 N10 S3,C(CN(CCSc1nccc(n1)c1cccnc1)CCSc1nccc(n1)c1cccnc1)Sc1nccc(n1)c1cccnc1,6.177528639999999
8297,FOWSOC,C37 H23 N1 O2,O=C(c1ccc(cc1)N1c2ccccc2c2ccccc12)c1ccc(cc1)c1cccc2c1Oc1ccccc21,5.78568469
8298,FOWXAT,C37 H29 O3 P1,COc1ccc(cc1)C1=C(C#Cc2ccc(C)cc2)P(=O)(c2ccccc2)c2ccccc2c2cc(OC)ccc12,5.64500183
8299,FOWYAS,C20 H18 Cl1 N3 O3,COC(=O)CNC(c1ccc(Cl)cc1)=C1C(=NN(C1=O)c1ccccc1)C,6.13643945
8300,FOXDON,C24 H17 N3 O6 S1,COC(=O)C1(C(=O)OC)C(=S)N(c2ccccc2)C23OC(=C(C#N)C12C(=O)c1ccccc31)N,6.03466886
8302,FOXFUV,C18 H18 O4 S3,CC(=O)COc1ccc(cc1)C1=CC(SS1)=C(SCC(C)=O)C(C)=O,5.39547343
8303,FOXHAB10,C22 H16 O4,COc1cc2c(cc3C(=O)C=CC(=O)c3c2cc1OC)c1ccccc1,5.119549989999999
8304,FOXREQ01,C28 H16 O8,COC(=O)c1cc2C#CC#Cc3cc(C(=O)OC)c(cc3C#CC#Cc2cc1C(=O)OC)C(=O)OC,5.114924050000001
8305,FOXVOF,C24 H17 Cl1 N4 O1,COc1ccc2cc(C3Nc4ccccc4C4=Nc5ccccc5N34)c(Cl)nc2c1,5.83276038
8306,FOXWIY,C40 H38 N6 O2,CCC1=C(C)C2=NC1=CC1=C(C)C3=C(N1)C(=C1N=C(C=C4NC(=C2)C(=C4C)C=C)C(C)C1CCC(=O)OC)C1=Nc2ccccc2N=C31,3.81204293
8307,FOXXAU,C31 H34 N2 O2,CC1=NN(c2ccccc2)C(=O)C21C(c1ccccc1)C12C=C(C(=O)C(=C1)C(C)(C)C)C(C)(C)C,6.10433001
8308,FOXXEX,C17 H16 N2 O3 S1,Cc1ccc(cc1)S(=O)(=O)Nc1cc(C)cc2ccc[n+]([O-])c12,5.8088143599999995
8309,FOXXEY,C31 H34 N2 O2,CC1=NN(c2ccccc2)C(=O)C1=C(c1ccccc1)c1cc(c(O)c(c1)C(C)(C)C)C(C)(C)C,4.917097269999999
8310,FOYBIF,C27 H27 N3 O2,CN(C)c1ccc(C=CC(=O)c2cccc(n2)C(=O)C=Cc2ccc(cc2)N(C)C)cc1,5.16199975
8311,FOYBUR,C12 H16 Cl2 N2 O2,CCNC1=C(Cl)C(=O)C(=C(Cl)C1=O)N(CC)CC,5.076283890000001
8312,FOYCEC,C19 H19 Cl1 N4 O2,CC1=C(C#N)C(=O)N(C2CCCCC2)C(=O)C1=NNc1ccc(Cl)cc1,5.31492773
8313,FOYGIJ,C38 H28 O5,COc1c2ccccc2c(C(=O)c2ccccc2)c2C3C=CC4C(O)(OC(c12)C34C(=O)c1ccccc1)c1ccccc1,6.02977081
8314,FOYJAH,C14 H16 N2 O2,CCN(CC)c1ccc(cc1)C=C(C#N)C(O)=O,5.429487660000001
8315,FOYKOT,C18 H18 O4,COC1=CC(=O)C(=C(O)C=Cc2ccccc2)C(=O)C1(C)C,5.58731369
8316,FOYMIS,C16 H11 I1 N2 O2,NC(=O)C1=Cc2ccccc2OC1=Nc1ccccc1I,5.93806845
8317,FOYMOY,C17 H14 N2 O3,COc1ccccc1N=C1Oc2ccccc2C=C1C(N)=O,5.761738670000001
8318,FOYNEO,C16 H6 N2 S6,S1C=CC2=C1C=C(S2)C1=NC2=C(S1)N=C(S2)C1=CC2=C(S1)C=CS2,5.0705694900000005
8319,FOYNOY,C36 H34 N2 O6,CC(C)COc1ccccc1C(=O)Nc1cccc2C(=O)c3c(NC(=O)c4ccccc4OCC(C)C)cccc3C(=O)c12,5.4703047399999996
8320,FOYPAL,C11 H16 N1 O5 P1 S3,CCOP(=S)(OCC)SC=C1NC(=O)C(S1)=CC(=O)OC,5.73452728
8321,FOYPIT,C19 H16 N1 O3 P1 S2,COC(=O)C=C1SC(NC1=O)=CP(=S)(c1ccccc1)c1ccccc1,5.87085632
8325,FOYVOE,C14 H9 Br1 N2 O2,CC1=C(Br)C(=O)C2=NN(C=C2C1=O)c1ccccc1,6.01861415
8326,FOYYOK,C20 H15 Cl5 N4 O2,CC1Oc2ccccc2N(C1C)C(=O)C1=NN(c2ccc(Cl)cc2Cl)C(=N1)C(Cl)(Cl)Cl,6.37263427
8327,FOZCAZ,C18 H23 N3 S1,CCN(CC)c1ccc(C=Cc2cc(C)nc(SC)n2)cc1,5.5396937699999995
8328,FOZCED,C23 H22 N2 S1,CSc1nc(C=Cc2ccc(C)cc2)cc(C=Cc2ccc(C)cc2)n1,5.84228437
8329,FOZCIH,C23 H22 N2 O2 S1,COc1ccc(cc1)C=Cc1cc(C=Cc2ccc(OC)cc2)nc(SC)n1,5.82405275
8330,FOZCON,C21 H16 F2 N2 S1,CSc1nc(C=Cc2ccc(F)cc2)cc(C=Cc2ccc(F)cc2)n1,5.917387799999999
8331,FOZDAC,C21 H16 N2 O1,O=C1C2=Cc3ccccc3C3=NC=CN3C2CCc2ccccc12,5.84446128
8332,FOZHEH,C15 H12 N2 O3,CCOC(=O)C(C#N)=C1NC(=CC1=O)c1ccccc1,5.4145214
8333,FOZHUZ,C21 H17 Cl4 N1 O1,CCN1CC(=Cc2ccc(Cl)cc2Cl)C(=O)C(C1)=Cc1ccc(Cl)cc1Cl,6.22542067
8336,FOZQEQ,C12 H10 O4 S5,COC(=O)C1=C(SC(S1)=C1SC2=C(SCC2)S1)C(=O)OC,5.03601103
8337,FOZQER,C17 H13 Cl1 N2 O1 S1,Clc1ccc(cc1)C1NC(=S)NC=C1C(=O)c1ccccc1,6.158480669999999
8338,FOZQIU,C10 H8 S7,C1CSC2=C(S1)SC(S2)=C1SC2=C(SCC2)S1,5.89507446
8339,FOZQOA,C8 H6 S5,C1CC2=C(S1)SC(S2)=C1SC=CS1,5.8809245400000005
8340,FOZROD,C22 H18 Br1 N3 O3 S1,NS(=O)(=O)c1ccc(cc1)N1N=C2C(COc3ccccc23)C1c1ccc(Br)cc1,5.9987498299999995
8341,FOZRUJ,C23 H20 F1 N3 O2 S1,NS(=O)(=O)c1ccc(cc1)N1N=C2C(CCc3ccccc23)C1c1ccccc1F,5.97670861
8344,FOZWAV,C31 H33 N1 O8,CCOC(=O)c1cc(cc(c1)c1cc(C)cc(c1N)c1cc(cc(c1)C(=O)OCC)C(=O)OCC)C(=O)OCC,5.94623186
8346,FPBUTP,C19 H22 F1 N3 O1,Fc1ccc(cc1)C(=O)CCCN1CCN(CC1)c1ccccn1,6.33916426
8347,FPMPHI10,C13 H13 F1 N1 P1,CN=P(F)(c1ccccc1)c1ccccc1,6.39712451
8348,FPYSEC10,C7 H8 N4 Se1,NC(=[Se])NN=Cc1ccccn1,5.18458519
8349,FREELG,C15 H12 O3,CC(=CC#CC1=COC=C1)C=C1OC(=O)C(=C1)C,5.069481039999999
8350,FROPYR,C31 H22 N2 O4,COc1ccc(cc1)N1C(=O)C(=O)C2=C(OC(=Nc3ccccc3)C12c1ccccc1)c1ccccc1,5.68445834
8352,FUBLOE,C18 H16 N2 S2,CSc1nnc(SC)c2c3c(C)ccc4ccc(C)c(c12)c34,5.10812121
8353,FUBLUK,C18 H16 N2,Cc1ccc2ccc(C)c3c2c1c1c(C)nnc(C)c31,5.90214942
8354,FUBMAR,C28 H20 N2,Cc1ccc2ccc(C)c3c2c1c1c(nnc(c2ccccc2)c31)c1ccccc1,5.6792881699999995
8355,FUBMEV,C24 H26 N4 O2,CC(C)(C)c1cc2cc(cc3c2c(c1)c1c(nnc(C(N)=O)c31)C(N)=O)C(C)(C)C,5.64554605
8356,FUBMUL,C24 H20 N6,CC1=NN(C(=C1)C)c1nnc(N2N=C(C)C=C2C)c2c3cccc4cccc(c34)c12,5.4991488
8357,FUBMUM,C33 H30 N2 O7,O=C1c2cc3OCCOCCOc4ccc(cc4)N=Nc4ccc(OCCOCCOc5ccc(c1c5)c2cc3)cc4,5.642824920000001
8358,FUBNAS,C28 H18 Cl2 N2,Clc1ccc(Cc2nnc(Cc3ccc(Cl)cc3)c3c4cccc5cccc(c23)c45)cc1,5.90078885
8359,FUBNEW,C16 H12 N2 S2,CSc1nnc(SC)c2c3cccc4cccc(c12)c34,5.13478836
8360,FUBNIA01,C24 H14 N4,c1ccc(nc1)c1nnc(c2ccccn2)c2c3cccc4cccc(c34)c12,5.83412096
8361,FUBNIC,C20 H15 N3 O2 S1,Oc1ccc(cc1)C1=C(OCc2ccccn2)N=C(S1)c1ccccn1,5.50268629
8362,FUBNOG,C24 H16 N2 S2,Cc1ccc2ccc(C)c3c2c1c1c(nnc(C2=CC=CS2)c31)C1=CC=CS1,5.445542380000001
8363,FUBNUM,C22 H12 N2 S2,S1C=CC=C1c1nnc(C2=CC=CS2)c2c3cccc4cccc(c34)c12,5.13016242
8364,FUBPAU,C16 H12 N2,Cc1nnc(C)c2c3cccc4cccc(c34)c12,5.86786308
8365,FUBPEY,C26 H16 N2,c1ccc(cc1)c1nnc(c2ccccc2)c2c3cccc4cccc(c34)c12,5.5807829600000005
8366,FUBPIC,C20 H16 N2 O4,COC(=O)c1nnc(C(=O)OC)c2c3c(C)ccc4ccc(C)c(c34)c12,5.857250629999999
8367,FUBPOI,C18 H12 N2 O4,COC(=O)c1nnc(C(=O)OC)c2c3cccc4cccc(c34)c12,5.8888158399999995
8368,FUBPOJ,C31 H28 Cl1 F2 N3 O2,CCN1CC(=Cc2ccc(F)cc2)C(=O)C2(C1)C(CN(C)C12C(=O)Nc2ccc(Cl)cc12)c1ccc(F)cc1,6.343245960000001
8369,FUBQAV,C24 H16 N2 O2,Cc1ccc2ccc(C)c3c2c1c1c(nnc(C2=CC=CO2)c31)C1=CC=CO1,5.5897627199999995
8370,FUBQAX,C28 H25 N3 O1,C1CCCc2c(CC1)cnnc2c1ccc(cc1)N1c2ccccc2Oc2ccccc12,5.71738411
8371,FUBQEB,C28 H25 N3 S1,C1CCCc2c(CC1)cnnc2c1ccc(cc1)N1c2ccccc2Sc2ccccc12,5.87602648
8372,FUBQIF,C20 H13 N5 S1,S1c2ccccc2N(c2ccc(cc2)c2nncnn2)c2ccccc12,5.3010499200000005
8373,FUBQUQ,C19 H29 N1 O3 S2,CC(C)(C)OC(=O)N1CCCC1C1=CSC2(O1)C(C)(C)C(=S)C2(C)C,5.9135782
8374,FUBSEC,C41 H46 N2 O11,O=C1c2cc3OCCOCCOCCOCCOc4ccc(cc4)N=Nc4ccc(OCCOCCOCCOCCOc5ccc(c1c5)c2cc3)cc4,5.54649662
8375,FUBVAC,C28 H20 Br1 N3 O1,Brc1ccc(cc1)N1N=C(C(=O)c2ccccc2)C(=NC1c1ccccc1)c1ccccc1,5.77643282
8376,FUBWAA,C34 H42 N4 O6,CC(C)C(C1=C(CCC(O)=O)C(=C(N1)C=C1NC(=O)C(=C1C)C)C)C1=C(CCC(O)=O)C(=C(N1)C=C1NC(=O)C(=C1C)C)C,5.03084086
8377,FUBWAD,C43 H31 N3,c1ccc(cc1)N(c1ccccc1)c1ccc(cc1)c1cccc(c1)c1ccc(cc1)C1=Nc2ccccc2N1c1ccccc1,5.74160225
8378,FUBWIK,C12 H11 Cl1 O3,COC1=C(Cl)C(=O)C2CC(=CC=C12)C(C)=O,5.881468760000001
8379,FUBXIK,C34 H18 Cl4 N6,Clc1cccc(Cl)c1C(C1=CC=CN1)=C1C=CC(=N1)C(C#N)=C(C#N)C1=NC(C=C1)=C(C1=CC=CN1)c1c(Cl)cccc1Cl,3.69176861
8380,FUBXOQ,C22 H11 Cl4 N3 O3,COC1=NC(C=C1)=C(C1=CC=C(N1)C(C#N)=C1OC(=O)C(=C1Cl)Cl)c1c(Cl)cccc1Cl,4.1219806100000005
8381,FUBXUW,C19 H13 N3 O1,CC1=CC(C=C(C)O1)=C(C#N)C(c1ccccc1)=C(C#N)C#N,5.09587608
8382,FUCFIS,C17 H13 N1 O1 S1,O=C1C=C(SN1C=Cc1ccccc1)c1ccccc1,5.81207974
8383,FUDDIR,C21 H18 N2 O5,COC(=O)C12OC3(Nc4ccccc14)N(C(=O)C2(C)C)c1ccccc1C3=O,6.1489566799999995
8384,FUDFOC,C28 H22 N2 O3,CCOC(=O)C1=C2N=C3C(=C(N2c2ccccc12)c1ccc(C)cc1)COc1ccccc31,5.128801849999999
8385,FUDHES,C30 H26,Cc1ccccc1C(=Cc1ccccc1)C(=Cc1ccccc1)c1ccccc1C,5.8526247
8386,FUDQEC,C12 H8 I4,Cc1cc2C(=C(I)C(=C(I)I)c2cc1C)I,5.63166825
8387,FUDRAZ,C23 H21 N1 O6,COc1ccc(cc1)C1OCC2OC(C=CC2O1)N1C(=O)C(=O)c2cc(C)ccc12,5.8403795700000005
8388,FUDXOS,C14 H14 O4 S1,CCOC(=O)C1=C2C=CC=CC2=C(S1)C(=O)OCC,5.532618810000001
8389,FUFBAK,C18 H25 N1 O3,CC(C)N(CCOc1ccc2C(=CC(=O)Oc2c1)C)C(C)C,6.63876161
8390,FUFDEP,C20 H15 N1 O5,COc1c(OC)c2c3ccccc3C(=O)c3nccc(c1OC(C)=O)c23,5.54214279
8391,FUFDUF,C20 H14 N2 O2,Nc1ccc(Nc2ccccc2)c2C(=O)c3ccccc3C(=O)c12,4.36497828
8392,FUFLIE,C38 H30 O2 S2,COc1ccc(cc1)C1=C(C)SC(=C1)c1c2ccccc2c(C2=CC(=C(C)S2)c2ccc(OC)cc2)c2ccccc12,5.44227701
8393,FUFLOK,C36 H26 S2,CC1=C(C=C(S1)c1c2ccccc2c(C2=CC(=C(C)S2)c2ccccc2)c2ccccc12)c1ccccc1,5.31683252
8394,FUFPUU,C36 H30 O2,CC(C)(C)c1ccc2c(Oc3cc4ccc5c6ccc(cc6Oc6cc7ccc2c3c7c4c56)C(C)(C)C)c1,4.69668506
8395,FUFQUV,C38 H38 O2,COc1cc(ccc1c1ccc2ccc3c(ccc4ccc1c2c34)c1ccc(cc1OC)C(C)(C)C)C(C)(C)C,5.36771782
8396,FUFREG,C25 H21 N1 O1,COc1ccc(cc1)C=Cc1ccccc1c1c(N)ccc2ccccc12,5.8602438900000005
8397,FUFRIK,C25 H20 Cl1 N1 O1,COc1ccc(cc1)C=Cc1ccc2ccccc2c1c1cc(Cl)ccc1N,5.76935786
8398,FUFROQ,C25 H21 N1 O1,COc1ccc(cc1)C=Cc1ccc2ccccc2c1c1ccccc1N,5.89833982
8399,FUFRUW,C26 H23 N1 O2,COc1ccc(cc1)C=Cc1ccc2ccccc2c1c1ccc(OC)cc1N,5.76935786
8400,FUFSIJ01,C11 H9 N3 O2,NC(=O)NN=C1C=Cc2ccccc2C1=O,5.38649367
8401,FUFTIM,C40 H28,C1CC(=C(CCC(=C1C#Cc1ccccc1)C#Cc1ccccc1)C#Cc1ccccc1)C#Cc1ccccc1,5.68445834
8402,FUFZEO,C20 H30 N6,CC(C)N=C1N=C2C=C3N(C(C)C)C(=NC(C)C)N=C3C=C2N1C(C)C,4.52606967
8403,FUFZIS,C32 H46 N6,C1CCC(CC1)N=C1N=C2C=C3N(C4CCCCC4)C(=NC4CCCCC4)N=C3C=C2N1C1CCCCC1,4.38810795
8404,FUFZOX,C29 H17 F6 N4 O1 P1,FC(F)(F)c1ccc(cc1)P(=O)(c1ccc(cc1)C(F)(F)F)c1cccc2ccc(nc12)C1=C2C=CC=CN2N=N1,5.77343957
8405,FUFZUB,C11 H16 N4 O1 S1,CN(CCO)c1ccc(cc1)C=NNC(N)=S,5.86623038
8406,FUGLAX,C31 H34 O7,CC(C)C12Oc3c(C)c(O)c(C(=O)CCc4ccccc4)c(O)c3C1C1=C(O2)C(C)(C)C(=O)C(C)(C)C1=O,6.5639303
8407,FUGLIF,C12 H15 N3 S1,CN(C)C(=S)NN=CC=Cc1ccccc1,5.60364052
8408,FUGLUQ,C23 H15 B1 F2 N2,F[B-]1(F)N2C=CC=C2C(=C2C=CC=[N+]12)C#Cc1ccc(cc1)c1ccccc1,4.59300968
8410,FUGRII,C29 H23 N2 O1 P1,O=C1NC=CC(=Nc2ccccc2)C1=P(c1ccccc1)(c1ccccc1)c1ccccc1,6.11031651
8411,FUGROO,C29 H23 N2 P1 S1,S=C1NC=CC(=Nc2ccccc2)C1=P(c1ccccc1)(c1ccccc1)c1ccccc1,5.75330314
8412,FUGROP,C29 H20 Cl1 N1 O1 S1,Clc1ccc(cc1)C(=O)C(Sc1nc(cc2ccccc12)c1ccccc1)c1ccccc1,6.12800391
8413,FUGSOQ,C15 H14 O5,CC1=C(CCCC(O)=O)C(=O)c2c(O)cccc2C1=O,6.277938649999999
8414,FUGTAD,C19 H17 N3 O1,O=C(CC(Nc1ccccc1)c1ccccn1)c1ccccn1,5.65153256