,ID,formula,smiles,HOMO_LUMO_gap
2826,CADJOI,C19 H15 Cl1 N2 O2,Cc1cccc2cc(C3Nc4ccccc4C(=O)C3O)c(Cl)nc12,5.77371168
2827,CADMIE,C34 H30,CC(C)(C)C#Cc1c2cc3ccccc3cc2c(C#CC(C)(C)C)c2cc3ccccc3cc12,3.5576164799999996
2830,CADMUT,C21 H14 O1 S4,CSC1=C(SC)SC(S1)=C1C(=O)c2cccc3ccc4cccc1c4c23,4.91464826
2831,CADNAA,C17 H8 Br2 O1,BrC(Br)=C1C(=O)c2cccc3ccc4cccc1c4c23,5.69615924
2833,CADNEE,C19 H14 O3,CCOC(=O)c1c(O)c2cccc3ccc4cccc1c4c23,5.4716653
2834,CADNUS,C14 H20 N2 O1 S1,CCOC(=NC(=S)N(CC)CC)c1ccccc1,6.04963513
2835,CADPAA,C16 H25 N3 S1,CCN(CC)C(=S)N=C(N(CC)CC)c1ccccc1,6.076302279999999
2836,CADPEE,C14 H21 N3 S1,CCNC(=NC(=S)N(CC)CC)c1ccccc1,5.882013000000001
2837,CADSIL,C14 H14 N2 O1,CCCOC1=CC2=C3C=CC=CC3=NC2=CN1,4.80199312
2838,CADVAE,C17 H15 N1 O1,CC(=O)C1=C2CC(=CC=C1)C=C1NC(=C2)C=CC=C1,5.02675916
2839,CADVEK,C22 H24 Cl1 N2 O4 P1,CCOP(=O)(OCC)C1=NNC2(CCc3ccccc3C2=O)C1c1ccc(Cl)cc1,6.38760053
2840,CADXUC,C24 H10 S6,S1C=Cc2c1c1C=CSc1c1C=C(Sc21)C1=Cc2c3SC=Cc3c3SC=Cc3c2S1,5.642824920000001
2841,CAFMAX,C17 H18 O2,CC1C2C(C(C)C3=C1C1CC3C=C1)C(=O)C=CC2=O,5.57098686
2842,CAFSIN,C26 H37 N3,CC(C)c1cccc(C(C)C)c1Nc1ccccc1C=NCCN1CCCCC1,5.98704894
2843,CAFSUA,C26 H23 N3 O3 S1,CCOc1ccc2N=C(Sc2c1)N=Nc1ccc(OC(=O)CC2Cc3ccccc3C2)cc1,5.37751391
2844,CAFTEL,C34 H24 O2,COc1ccc(cc1)c1ccc2c3cccc4c(ccc(c5cccc1c25)c34)c1ccc(OC)cc1,4.74920303
2845,CAFTIP,C34 H24 O2,COc1ccc(cc1)c1ccc2c3ccc(c4ccc(OC)cc4)c4cccc(c5cccc1c25)c34,4.6169557
2846,CAFVEN,C32 H18,c1cc2ccc3ccc(c4ccc5ccc6cccc7ccc4c5c67)c4ccc(c1)c2c34,5.28118561
2847,CAGDEW,C28 H21 N5 S2,CC1=C(N=C(S1)N=C1NC(=NC2=NC(=C(C)S2)c2ccccc2)c2ccccc12)c1ccccc1,5.15819015
2848,CAGDIY,C20 H17 N1,CC(C)=NCc1ccc2ccc3cccc4ccc1c2c34,5.70649956
2849,CAGGAV,C23 H19 N1 O4,O=C1c2ccccc2C(=O)C21C1CCCN1C(C2C1=CC=CO1)C1=CC=CO1,5.64391337
2850,CAGGIA01,C18 H13 Cl1 O5 S1,COC(=O)[C-]([S+]1c2ccccc2C(=O)c2cc(Cl)ccc12)C(=O)OC,5.67901606
2851,CAGGOH,C15 H10 N4 O1,[O-][n+]1ccc2ccccc2c1N1N=Nc2ccccc12,5.95521162
2852,CAGGUN,C11 H8 N4 O1,[O-][N+]1=NN(c2ccccn2)c2ccccc12,5.864597699999999
2853,CAGHAU,C15 H10 N4 O1,[O-][N+]1=NN(c2ccc3ccccc3n2)c2ccccc12,5.79901827
2854,CAGJEB,C20 H17 N1 O5,CCC(CC)CN1C(=O)c2ccc3C(=O)OC(=O)c4ccc(C1=O)c2c34,5.792487529999999
2855,CAGJOK,C33 H38 N4 O8,CCOC(=O)C(=CNc1ccccc1NC(C)=C(C=Nc1ccccc1NC=C(C(C)=O)C(=O)OCC)C(=O)OCC)C(C)=O,5.97861341
2856,CAGJUQ,C26 H30 N4 O5,CCOC(=O)C(=CNc1ccccc1N=CC(=C(C)Nc1ccccc1N)C(=O)OCC)C(C)=O,6.03221984
2857,CAGJUR,C26 H20 N4,CN(C)c1ccc(cc1)C1=CN(N=N1)c1ccc2ccc3cccc4ccc1c2c34,5.10458372
2858,CAGKEC,C37 H48 O4,CCCCCCOc1ccc(OC)cc1C=Cc1cc(OCCCCCC)c(C=Cc2ccc(C)cc2)cc1OC,5.02131689
2859,CAGKOL,C44 H34 N8,Nc1ccccc1C1=C2NC(=C(C3=NC(=C(C4=CC=C(N4)C(=C4C=CC1=N4)c1ccccc1N)c1ccccc1N)C=C3)c1ccccc1N)C=C2,4.14592663
2860,CAGQOT,C40 H49 N3 P2,CC(C)c1ccc(cc1)N=P1(CCCC1)c1cc(C)cc2c1Nc1c2cc(C)cc1P1(CCCC1)=Nc1ccc(cc1)C(C)C,5.42731075
2861,CAGVEL,C8 H9 N1 O2 S1,COC(=O)C1=CC=CN(C)C1=S,5.84201226
2862,CAGYIT01,C14 H10 N4 S2,S=C1SC(=NN1c1ccccc1)N=Nc1ccccc1,4.98022769
2863,CAGZAO,C31 H26 N2 O4,CCOC(=O)CC1=C(C(=O)c2ccccc2)C2(N(CCC3=C2Nc2ccccc32)C1=O)c1ccccc1,5.1897553599999995
2864,CAGZES,C29 H30 N2 O4,CCCCCC12N(CCC3=C1Nc1ccccc31)C(=O)C(=C2C(=O)c1ccccc1)CC(=O)OC,5.02920818
2865,CAGZOC,C18 H19 N1 O4,COc1ccc(C=CC(=O)c2cc(OC)c(OC)cc2N)cc1,5.39601765
2866,CAGZUI,C15 H13 N1 O2,Nc1ccccc1C(=O)C=Cc1ccc(O)cc1,5.6202394600000005
2868,CAHMIK,C14 H12 N4 S1,CN(N=Cc1ccccn1)C1=Nc2ccccc2S1,6.00283154
2869,CAHVAL,C26 H23 N3 O3 S1,CCOC(=O)COc1ccccc1C1=NN(C(C1)c1ccccc1)C1=Nc2ccccc2S1,5.82486908
2870,CAHWEQ,C31 H18 O8,COC(=O)C12C(=O)c3c(O)cccc3C1=C1C=CC(=O)c3c(O)ccc(c13)C12C=CC(=O)c2c(O)cccc12,5.00226891
2871,CAHWOZ,C20 H21 N3 O1 S2,CCCC[N+]1=C(N(N=Cc2ccc(OC)cc2)c2ccccc12)C(=S)[S-],5.29343074
2872,CAHWUF,C27 H35 N5 O1 S2,CCCCN1c2ccccc2N(N=Cc2ccc(OC)cc2)C21N(C(C)C)C(=S)N(C(C)C)C2=S,5.34241123
2873,CAHXAM,C17 H15 N3 O1 S1,CN1c2ccccc2[N+](=C1C(=S)[N-]C(=O)c1ccccc1)C,5.57098686
2874,CAHXIU,C15 H14 O5,COC(=O)CC(C)C1=C(O)C(=O)c2ccccc2C1=O,6.41181866
2875,CAJCAS,C32 H14 F16,FC1(F)c2ccc(cc2)C(F)(F)C(F)(F)c2ccc(cc2c2cc3ccc2C(F)(F)C(F)(F)c2ccc(cc2)C(F)(F)C3(F)F)C1(F)F,6.605563720000001
2876,CAJFAX,C19 H15 N3 S1,S=C1N(Cc2ccccc2)C=CN1C(=CC#N)c1ccccc1,5.72418696
2877,CAJHED,C31 H30 Cl1 N1 O9,CCOC(=O)c1cc(ccc1Cl)c1c2CCN(C)C(C3OC(=O)c4c3ccc(OC)c4OC)c2c(OC)c2OCOc12,6.43794159
2878,CAJSIS,C34 H36 N2,CC(C)N(C(C)C)c1ccc(cc1)C#CC#CC#CC#CC#Cc1ccc(cc1)N(C(C)C)C(C)C,5.098325109999999
2879,CAJSOY,C32 H36 N2,CC(C)N(C(C)C)c1ccc(cc1)C#CC#CC#CC#Cc1ccc(cc1)N(C(C)C)C(C)C,5.30132203
2880,CAJSUE,C30 H36 N2,CC(C)N(C(C)C)c1ccc(cc1)C#CC#CC#Cc1ccc(cc1)N(C(C)C)C(C)C,5.41343295
2881,CAJYES,C22 H12 N2 O4,O=C1C=Cc2ccccc2C21Oc1ccc3ccccc3c1C1=NO[N+](=C21)[O-],5.6501719900000005
2882,CAJYOE,C30 H23 N5,CCN(CC)c1ccc(cc1)C(=C1C=CC(C=C1)=C(C#N)C#N)C(c1ccccc1)=C(C#N)C#N,3.43788639
2883,CAKGON,C24 H24 N2 O5,COC(=O)C1=C(C(=O)OC)C(OC1=Nc1c(C)cccc1C)=Nc1c(C)cccc1C,5.438739529999999
2884,CAKHAA,C17 H16 O3,CC1CC(=CC2=CC=CO2)C(=O)C(C1)=CC1=CC=CO1,5.771534770000001
2885,CAKHAX,C15 H18 O3,CC(=C)C1CCC2=C(O)C(=O)C(=CC(=C2C1)C)O,5.84663819
2886,CAKHEE,C20 H22 O1 S2,CC(C)(C)C1CC(=CC2=CC=CS2)C(=O)C(C1)=CC1=CC=CS1,5.59683768
2887,CAKLAE,C14 H10 O2 S6,C1COc2cc3SC(Sc3cc2O1)=C1SC2=C(SCCS2)S1,5.6708526500000005
2888,CAKMEJ,C18 H13 N5 O1,NC1=NC(=NNC(=O)c2ccccn2)c2ccc3ccccc3c12,5.48227775
2889,CAKMIM,C42 H26 Cl2 N2 S1,Clc1ccc2nc(c3ccccc3)c(Sc3c(nc4ccc(Cl)cc4c3c3ccccc3)c3ccccc3)c(c3ccccc3)c2c1,5.86160445
2890,CAKMIN,C16 H16 N6 O3 S1,CN(C)S(=O)(=O)c1cccc2C(=NNC(=O)c3ccccn3)N=C(N)c12,5.59792613
2891,CAKMUZ,C20 H15 N5 O1 S1,NC1=NC(=NNC(=O)c2ccccn2)c2cccc(Sc3ccccc3)c12,5.723098500000001
2892,CAKNAG,C17 H17 N5 O2,CC(C)Oc1ccnc(c1)C(=O)NN=C1N=C(N)c2ccccc12,5.81180762
2893,CAKQOW,C13 H14 N2 O3,CC(=O)c1ccc(NN=C(C(C)=O)C(C)=O)cc1,5.98977008
2894,CAKWAM,C16 H14 F3 N1 O3 S2,COc1ccc2c(cccc2c1SC(F)(F)F)C(=S)N(C)CC(O)=O,6.058342770000001
2895,CAKZIX,C17 H15 N1 O5,COC(=O)C1=C(C=C(O1)C=CC=Nc1ccccc1)C(=O)OC,5.785412579999999
2896,CALDOL,C19 H16 N2 O1,Cc1ccc([n+](c1)[N-]C(=O)c1ccccc1)c1ccccc1,5.95711642
2898,CALMIO,C18 H13 B1 F7 N3 O1,C[N+](C)(C)C1=CC=C2N1[B-](F)(F)N1C(=O)C=CC1=C2c1c(F)c(F)c(F)c(F)c1F,5.34159488
2899,CALMOU,C19 H16 B1 F7 N4,CN=C1C=CC2=C(C3=CC=C(N3[B-](F)(F)N12)[N+](C)(C)C)c1c(F)c(F)c(F)c(F)c1F,5.10621641
2900,CALNOV,C39 H41 P1 S2,CC(C)(C)c1cc(c(P=C2c3cc(ccc3c3ccc(cc23)C2=CC=CS2)C2=CC=CS2)c(c1)C(C)(C)C)C(C)(C)C,4.9804998000000005
2901,CALSOX,C16 H8 O2 S2,O=C1SC(=C2SC(=O)c3ccccc23)c2ccccc12,5.38785424
2902,CALWUA01,C11 H10 N4 O1,NC1=NC(C=CC1=O)=NNc1ccccc1,4.68416783
2904,CALZOF,C27 H28 O1,O=C1C=Cc2c3CCCc4c5CCCc3cc3CCCc(c5)c(CCCc23)c14,6.092357000000001
2905,CAMBIE,C31 H35 As1 Br2,CC(C)(C)c1cc(c([As]=C2c3cc(Br)ccc3c3ccc(Br)cc23)c(c1)C(C)(C)C)C(C)(C)C,4.95981916
2906,CAMBOK,C31 H35 Br2 P1,CC(C)(C)c1cc(c(P=C2c3cc(Br)ccc3c3ccc(Br)cc23)c(c1)C(C)(C)C)C(C)(C)C,5.25234155
2907,CAMGAA,C21 H10 O1,O=C1c2ccc3Cc4ccc5Cc6ccc1c1c6c5c4c3c21,5.761466560000001
2908,CAMJOP,C22 H26 N2 O2,CCCCNc1ccc(NCCCC)c2C(=O)c3ccccc3C(=O)c12,4.29504502
2909,CAMPTC10,C22 H17 I1 N2 O5,CCC1(OC(=O)CI)C(=O)OCC2=C1C=C1N(Cc3cc4ccccc4nc13)C2=O,5.66513825
2910,CAMWAQ,C16 H8 N2,N#Cc1c2ccccc2c(C#N)c2ccccc12,4.99682664
2911,CAMWEU,C27 H16 F1 N3 O2,CC1=NN(c2ccccc2)c2nc3c4ccccc4C(=O)C(=O)c3c(c3ccc(F)cc3)c12,5.495339209999999
2912,CAMWIY,C36 H50 N4 O2,CCCCCCCOc1ccc(cc1)N=Nc1c(C)c(C)c(N=Nc2ccc(OCCCCCCC)cc2)c(C)c1C,5.764731920000001
2913,CAMWOE,C31 H41 N5 O2,CCCCCCCOc1ccc(cc1)N=Nc1c(C)c(C)c(N=[N+]([O-])c2ccc(cc2)N(C)C)c(C)c1C,6.09426179
2914,CAMZIC,C23 H24 N2 O1,CN(C)c1ccc(cc1)C(=C1C=CC(=O)C=C1)c1ccc(cc1)N(C)C,4.673827490000001
2915,CAMZOI,C21 H19 N1 O1,CN(C)c1ccc(cc1)C(c1ccccc1)=C1C=CC(=O)C=C1,4.75600588
2916,CANAPQ,C10 H6 Cl1 N1 O2,NC1=C(Cl)C(=O)c2ccccc2C1=O,5.35737749
2917,CANBUP,C14 H13 N1 O5,COc1cc(ccc1OC(C)=O)C=C1N=C(C)OC1=O,5.90868015
2918,CANCEC,C19 H27 N1 O2,CC1CCC2(C)C(CCC=C2C)C1(C)CC1=CC(=O)NC1=O,6.19195067
2919,CANJAD,C41 H30 O4,CCC1=C(CC)C(=O)c2c(ccc3ccc4OC(Oc5ccc6ccccc6c5c4c23)(c2ccccc2)c2ccccc2)C1=O,5.10975389
2920,CANJIM,C16 H16 F3 N1 O2,OC1CC2CCCCN3C(=CC(=C23)C1=C=C)C(=O)C(F)(F)F,5.92527909
2921,CANKIM,C47 H34 O6,CCCC1=CC(=O)c2ccc3ccc4OC(Oc5ccc6ccc7C(=O)C=C(CCC)C(=O)c7c6c5c4c3c2C1=O)(c1ccccc1)c1ccccc1,5.062406080000001
2922,CANKUX,C22 H14 O1,Cc1ccc2C(=O)c3cc4ccccc4cc3c3cccc1c23,5.38213985
2923,CANMAF,C30 H36 O6,COC(=O)C1(C)CC2C3(C)CCC4(C)C(=CC=C5C(=C(O)C(=O)C=C45)C)C3=C(C)CC2(C)C(=O)C1O,5.08118193
2924,CANMOV,C20 H20 N2 O1,COc1ccc(C=CC=NN=C2CCCc3ccccc23)cc1,6.02106317
2925,CANNAJ,C10 H7 Cl1 N2 O1 S1,Oc1ccc(Cl)cc1C=NC1=NC=CS1,5.93099348
2926,CANPEP,C30 H16 F6 N2 O4 S2,FC(F)(F)Sc1ccc(CN2C(=O)c3ccc4C(=O)N(Cc5ccc(SC(F)(F)F)cc5)C(=O)c5ccc(C2=O)c3c45)cc1,5.57098686
2927,CANREO,C39 H36 O8,COc1ccc2C=C(Oc2c1)c1cc(OC)c2C3C=C(C)CC4C3C(Oc3cc(OC)ccc43)(Oc2c1)c1ccc(OC)cc1OC,5.55819751
2928,CANSEP,C25 H23 Br1 O7,CC1(C)OC2(CC1C1(C)OC(=O)C=C1)OC1=C(Br)CC34CC3(C(=O)OC4C3=COC=C3)C1=C2,5.67275744
2929,CANTHX10,C40 H52 O2,CC(=CC=CC=C(C)C=CC=C(C)C=CC1=C(C)C(=O)CCC1(C)C)C=CC=C(C)C=CC1=C(C)C(=O)CCC1(C)C,4.14184492
2930,CANTRQ01,C14 H6 Cl2 O2,Clc1cccc2C(=O)c3c(Cl)cccc3C(=O)c12,6.123922200000001
2931,CANVEU,C22 H28 N4,CCN1c2ccccc2N(CC)C1=C1N(CC)c2ccccc2N1CC,5.70949281
2932,CANWUM,C17 H8 N2 O2 S2,O=C1OC2=C(SC(=N2)C2=Nc3ccccc3S2)c2ccccc12,5.58622524
2933,CAPBAY,C19 H18 O6,COc1cc2c(OC)c3cc4OCOc4cc3cc2c(OC)c1OC,5.308124879999999
2934,CAPBEC,C22 H24 O6,CCCCOc1c2cc3OCOc3cc2cc2c(OC)c(OC)c(OC)cc12,5.58105508
2935,CAPCIH,C18 H20 Br1 N3 O3,CCCN1C(CCC1=NC#N)CC(=O)OCC(=O)c1ccc(Br)cc1,6.251271490000001
2936,CAPDEE,C16 H8 Cl1 N1 O1,Clc1ccc2C(=O)c3cccc4ccnc(c2c1)c34,5.6591517499999995
2937,CAPDUS,C20 H17 N1 O2,COc1ccc(cc1)C(=O)N1C=CC(C=C1)=Cc1ccccc1,5.37941871
2938,CAPDUU,C18 H11 N3,N#Cc1cc2ccccc2nc1C1=CNc2ccccc12,5.72255427
2939,CAPFAC,C20 H23 N3 O2 S1,CC(=O)Nc1ccc(NC(=S)NC(=O)c2ccc(cc2)C(C)(C)C)cc1,6.04119959
2940,CAPFEG,C17 H12 Cl1 N3 O1,COc1ccc2c(NC=C2c2nc3ccccc3nc2Cl)c1,5.56581669
2941,CAPFII,C20 H12 O5,CC12CCC(=O)C3=COC(=C13)C(=O)c1cc3C(=O)C=CC(=O)c3cc21,6.224060100000001
2942,CAPGIK,C20 H20 N2 O2 S1,CCCN1C(=O)C(SC1=Nc1ccccc1)=Cc1ccc(OC)cc1,6.03657366
2943,CAPISQ,C16 H11 N3,Nc1ccccc1c1cc2cnccc2cc1C#N,5.58432044
2944,CAPJIN,C13 H8 F3 N1 O3,OC(=CC=C1N=C(OC1=O)c1ccccc1)C(F)(F)F,5.527992879999999
2945,CAPJOV,C35 H28 N4 O1,CCN(CC)c1nc(c2ccc(cc2)N(c2ccccc2)c2ccccc2)c2C(=O)c3ccccc3c2c1C#N,4.81233344
2946,CAPMOX,C15 H19 N1 O6,CCOC(=O)C1=C(C)C(=NOC)C(=C(C(=O)OCC)C1=O)C,6.114126100000001
2947,CAPNIR,C15 H15 N3 O1 S1,COc1ccc(cc1)N=NC(SC)=Nc1ccccc1,5.5399658800000005
2948,CAPPUG,C20 H18 O5,CCOC(=O)C1=C(c2ccccc2)c2c(OC)cc(OC)cc2C1=O,5.38350042
2949,CAPQIV,C21 H20 O6,CCOC(=O)C1=C(c2ccccc2)c2c(OC)c(OC)c(OC)cc2C1=O,5.6030963
2950,CAPWIC,C22 H18 Cl1 N3 O1,CC1(C)CC2=NN(C(=O)c3c4cc(Cl)ccc4nc(C1)c23)c1ccccc1,5.8801082
2951,CAPZUR,C28 H30 N2,CC(C)N=C1N(C(C)C)c2ccc(C)cc2C(=C1c1ccccc1)c1ccccc1,5.94405495
2952,CAQSOD,C18 H10 F1 N1 O2,Fc1ccc(cc1)C1=CC(=O)N2C(=O)c3ccccc3C2=C1,5.6504441100000005
2953,CAQTOF,C18 H19 N3 O2,CC1=NN(C=CCCCN2C(=O)c3ccccc3C2=O)C(=C1)C,5.83983534
2954,CAQYIE,C12 H10 N2 O2,Oc1cccnc1NC=C1C=CC=CC1=O,4.9704315900000005
2955,CARCIH,C32 H40 N4 O2,CCC1=C(C)C(=O)NC1=CC1=NC(=CC2=C(CC)C(=C(N2)C=C2N=C(OC)C(=C2CC)C)C)C(=C1C)CC,3.8555811399999995
2956,CARDUU,C15 H16 Cl2 N2 O3,COC(=O)C1(O)CC2=C(N(C)CCC2)c2c(Cl)nc(Cl)cc12,6.27821076
2957,CARGOR,C25 H24 Br1 N1 O7,COC(=O)C1=C(C(=O)OC)C23N(C)c4ccc(Br)cc4C2=C(C1C(=O)C13CCCC1)C(=O)OC,5.57697337
2958,CARHAF,C10 H7 Br1 N2 O2,Brc1ccc(NN2C(=O)C=CC2=O)cc1,5.35438423
2959,CARHEJ,C10 H7 Br1 N2 O2,Brc1ccc(NN=C2OC(=O)C=C2)cc1,5.30159415
2960,CARJEM,C16 H8 Br2,Brc1cc2ccc3cc(Br)cc4ccc(c1)c2c34,5.664866139999998
2962,CARKIQ,C27 H28 N2 O1,CN(C)c1cccc2ccc(c(N(C)C)c12)C(O)(c1ccccc1)c1ccccc1,5.90487055
2963,CARKOX,C16 H10 O1,Oc1cc2ccc3cccc4ccc(c1)c2c34,5.73262249
2964,CARLAK,C24 H14,c1ccc(cc1)C#Cc1cc2ccc3cccc4ccc(c1)c2c34,5.7990182699999995
2965,CARLUE,C21 H18 O3,COC(=O)CCCOc1cc2ccc3cccc4ccc(c1)c2c34,5.71303029
2966,CARMEP,C15 H12 O4,COC1=CC(=O)C2=C(CCc3cccc(O)c23)C1=O,5.53479572
2967,CARNOY,C35 H26 N2 O2,O=C1c2ccccc2OC(c2ccccc2)C21C(c1ccccc1)C(=NN2c1ccccc1)c1ccccc1,5.87167267
2968,CARPAO,C32 H26 O2,O=CC=CC=C1C=CC2CC1C1C2C2(OC1(c1ccccc1)c1ccccc21)c1ccccc1,5.9097686099999995
2969,CARREU,C56 H34,c1ccc(cc1)c1c2ccccc2c(c2ccccc2)c2cc3c(cc12)c(c1ccccc1)c1c2cccc4ccc5cccc(c5c24)c1c3c1ccccc1,4.0885106
2970,CARWAW,C24 H25 F1 N2 O4,CC(C)(C)OC(=O)NC1(CC(=O)c2ccccc2)C(=O)N(CC=C)c2ccc(F)cc12,6.28038767
2971,CARXIE,C34 H36 Cl2,CCCCCCc1cc(C#Cc2ccc(Cl)cc2)c(CCCCCC)cc1C#Cc1ccc(Cl)cc1,5.677655489999999
2972,CARXOK,C34 H36 Br2,CCCCCCc1cc(C#Cc2ccc(Br)cc2)c(CCCCCC)cc1C#Cc1ccc(Br)cc1,5.63765476
2973,CARYAW,C20 H18 O4 S1,CC1(C)OC(=O)C(=Cc2ccccc2SCc2ccccc2)C(=O)O1,5.77860973
2974,CARYAX,C17 H16 N4,CCN(CC)c1ccc(cc1)C=C(C=C(C#N)C#N)C#N,4.764713520000001
2975,CARYEB,C17 H16 N4,CCN(CC)c1ccc(cc1)C(=CC=C(C#N)C#N)C#N,4.40770015
2976,CARYIF,C18 H15 N5,CCN(CC)c1ccc(cc1)C=C(C#N)C(C#N)=C(C#N)C#N,4.38457048
2977,CARYOL,C18 H15 N5,CCN(CC)c1ccc(cc1)C(C#N)=C(C=C(C#N)C#N)C#N,4.24660875
2978,CARYUR,C18 H15 N5,CCN(CC)c1ccc(cc1)C(=CC(C#N)=C(C#N)C#N)C#N,3.9981688099999997
2979,CARZAY,C19 H14 N6,CCN(CC)c1ccc(cc1)C(C#N)=C(C#N)C(C#N)=C(C#N)C#N,4.10510955
2980,CARZEC,C16 H16 Cl1 N3,CCN(CC)c1ccc(cc1)C(Cl)=CC=C(C#N)C#N,4.7007667699999995
2981,CARZIF06,C20 H15 N1 O2,COC(=O)c1ccccc1N1c2ccccc2c2ccccc12,6.55222941
2982,CARZIG,C17 H15 Cl1 N4,CCN(CC)c1ccc(cc1)C(Cl)=C(C=C(C#N)C#N)C#N,4.83464678
2983,CARZOM,C17 H15 Cl1 N4,CCN(CC)c1ccc(cc1)C(Cl)=CC(C#N)=C(C#N)C#N,4.29803826
2984,CARZUS,C18 H14 Cl1 N5,CCN(CC)c1ccc(cc1)C(Cl)=C(C#N)C(C#N)=C(C#N)C#N,4.43436731
2985,CASBAA,C15 H20 O4 S1,CC1(C)OC(=O)C(=CC=CSC2CCCCC2)C(=O)O1,5.698064029999999
2986,CASBAC,C21 H20 N2 O1 S3,CCCCS(=O)C1=C(N)c2c(S1)nc(cc2c1ccccc1)C1=CC=CS1,5.56282345
2987,CASBIJ,C29 H21 Br1 N4 O5,COC(=O)C1=C(C(=O)OC)C2(C(=O)N(Cc3ccccc3)c3ccccc23)C(C#N)(C#N)C2C=CC(=CN12)Br,6.01480455
2988,CASDIM,C42 H29 N1 O2,COc1ccc(cc1)c1ccc2c(OC(=C2C#N)c2ccc(cc2)C(c2ccccc2)=C(c2ccccc2)c2ccccc2)c1,5.6104433700000005
2989,CASDOS,C42 H29 N1 O2,COc1ccc(cc1)c1cccc2c1OC(=C2C#N)c1ccc(cc1)C(c1ccccc1)=C(c1ccccc1)c1ccccc1,5.674118010000001
2990,CASJOY,C19 H23 N1 O4,CCOC(=O)C1=C(O)C(=CC(C)=O)N(c2ccc(C)cc2)C1(C)C,5.839019
2991,CASJUE,C19 H23 N1 O4,CCOC(=O)C=C1N(c2ccc(C)cc2)C(C)(C)C(=C1O)C(C)=O,5.87847551
2992,CASKUF,C24 H17 N3 O1,Oc1ccc2ccccc2c1C1Nc2ccccc2C2=Nc3ccccc3N12,6.01698146
2993,CASLIS,C28 H20 N2 O2,Oc1cccc2ccc(C=Cc3ccc(cc3)C=Cc3ccc4cccc(O)c4n3)nc12,5.34322757
2994,CASMIT,C28 H22 S2,C(Sc1ccccc1)c1c2ccccc2c(CSc2ccccc2)c2ccccc12,5.29751245
2995,CASQIX,C24 H26 O6,COc1cc2OCCC(C(=O)c3ccc4OC(C)(C)C=Cc4c3OC)c2cc1OC,6.02922658
2996,CASRUL,C27 H21 N2 O1 P1 S1,O=P(c1ccccc1)(c1ccccc1)C1=CN(C(=S)N1c1ccccc1)c1ccccc1,5.96228658
2997,CASSAS,C19 H21 N2 O1 P1 S1,CC(C)N1C=C(N(C)C1=S)P(=O)(c1ccccc1)c1ccccc1,5.88718316
2998,CASTEV,C21 H22 N2 O7,COc1ccc(cc1OC)[N+]([O-])=C(N1C(=O)CCC1=O)c1ccc(OC)c(OC)c1,6.1492288
2999,CATBTH,C16 H12 Cl1 N1 O2 S2,CC(=O)OCC=C1Sc2ccc(Cl)cc2N=C1C1=CC=CS1,5.68908427
3000,CATMAL,C26 H23 N5 O1,COc1ccc(cc1)c1cc(nc2c(C#N)c(nc(N)c12)N1CCCC1)c1ccccc1,5.387854239999999
3001,CATMAN,C28 H22 Cl1 N3 O1,Cc1ccc(cc1)C(Nc1cccc2ccccc12)=C1C(=NN(C1=O)c1cccc(Cl)c1)C,5.61370874
3002,CATMER,C28 H23 N3 O1,Cc1ccc(cc1)C(Nc1cccc2ccccc12)=C1C(=NN(c2ccccc2)C1=O)C,5.4694884
3003,CATMIV,C29 H25 N3 O1,Cc1ccc(cc1)N1N=C(C)C(C1=O)=C(Nc1cccc2ccccc12)c1ccc(C)cc1,5.6014636200000005
3004,CATQIX,C31 H26 N2 O1,Cc1ccc(cc1)C1C(=NN(c2ccccc2)C21CCc1ccccc1C2=O)c1ccccc1,5.50731222
3005,CATROH,C25 H42 B2 N2 O4,CC[B-](CC)(CC)OC(=O)[B-](C1=[N+](C)C(C)(C)CO1)(C1=[N+](C)C(C)(C)CO1)c1ccccc1,5.9598375599999995
3006,CATYAX,C14 H13 N1 O3,COC(=O)C1=NC2=C(C=CC(=O)C=C2)C2(C)CC12,5.402820499999999
3007,CAVCEJ,C30 H28 Br1 N1 O8,COc1cc(cc(OC)c1OC)C=C1C(=O)N(C(=O)C1=Cc1cc(OC)c(OC)c(OC)c1)c1ccc(Br)cc1,5.451528879999999
3008,CAVCUZ,C22 H20 F1 N3,Cc1cccc(C)c1Nc1ccccc1C=NN=Cc1ccccc1F,5.61724621
3009,CAVDIM,C19 H18 N2 O1,CCOc1ccc(cc1)N=Cc1ccc2cc(C)ccc2n1,5.937252109999999
3010,CAVDOV,C19 H18 O2,COc1ccc(cc1)C=C(C)C(=O)C=Cc1ccccc1,6.05616585
3011,CAVHOX,C25 H14 F6 S6,CC1=CC2=C(S1)C1=C(S2)C(=C(C)S1)C1=C(C2=C(C)SC3=C2SC2=C3SC(=C2)C)C(F)(F)C(F)(F)C1(F)F,5.6988803699999995
3012,CAVHOZ,C20 H22 Br2 N2 O2,CCCCN1C(=O)c2cccc3c(ccc(C1=O)c23)N(CCBr)CCBr,5.704050540000001
3013,CAVJUF,C15 H11 N1 O2 S6,C1COC2=C(O1)SC(S2)=C1SC2=C(SC(CS2)c2ccncc2)S1,5.52119003
3014,CAVMOE,C23 H15 N1 O1,Cc1ccc2N=C3C=CC(=O)C4=C3C3(C=CC4c4ccccc34)c2c1,5.09995779
3015,CAVMUK,C20 H13 N1 O3,COC(=O)C=Cc1ccc2C(=O)C=Cc3nc4ccccc4c1c23,5.36554091
3016,CAVNAR,C21 H23 N1 O2,OC(=CC(=O)c1ccccc1)c1ccc(cc1)N1CCCCCC1,5.50132571
3017,CAVPIZ,C40 H26 S8,S1C=CC=C1C=C(C1=CC=CS1)C(C1=CC=CS1)=C(C1=CC=CS1)C(C1=CC=CS1)=C(C1=CC=CS1)C(=CC1=CC=CS1)C1=CC=CS1,5.77670493
3018,CAVPUN,C24 H17 N1 O1,Cc1ccc2N=C3C=C(C)C(=O)C4=C3C3(C=CC4c4ccccc34)c2c1,5.04281388
3019,CAVQIA,C24 H19 N2 P1,c1ccc(cc1)N=Nc1ccccc1P(c1ccccc1)c1ccccc1,5.53016979
3020,CAVTEY,C21 H16 O11,COC1=C(OC(C)=O)C(=O)c2c(OC(C)=O)c3c(OC(=C3OC(C)=O)C(C)=O)cc2C1=O,5.90160519
3021,CAWHOY,C42 H42 N2 O2,CCCc1ccc(cc1)N(c1ccc(OC)cc1)c1cccc2c(cccc12)N(c1ccc(CCC)cc1)c1ccc(OC)cc1,5.83684209
3022,CAWHUE,C38 H34 N2 O2,COc1ccc(cc1)N(c1ccc(C)cc1)c1cccc2c(cccc12)N(c1ccc(C)cc1)c1ccc(OC)cc1,5.63302881
3023,CAWJOA,C14 H11 N1 O4,OC(=O)c1cc([NH+]=Cc2ccccc2[O-])ccc1O,5.02458225
3024,CAWKIU,C10 H15 N5 O4 S1,CSCCC(NC1=NC(=C(N=O)C(=O)N1C)N)C(O)=O,6.2583464499999995
3025,CAWQAS,C34 H28 N2 O6,COc1cc(NC2=C(c3ccccc3C2=O)C2=C(Nc3cc(OC)cc(OC)c3)C(=O)c3ccccc23)cc(OC)c1,4.3304198199999995
3026,CAWRIC,C22 H12 F6 N4,FC(F)(F)c1cccc(c1)N1c2ccc(cc2Nc2nc3ccccc3nc12)C(F)(F)F,5.93970113
3027,CAWSAW,C26 H16 O2,O1c2ccc3c4C=C(Oc4ccc3c2C=C1c1ccccc1)c1ccccc1,5.643369150000001
3028,CAWSEA,C42 H48 O2,CCCCCCCCc1ccc(cc1)C1=Cc2c(O1)ccc1c3C=C(Oc3ccc21)c1ccc(CCCCCCCC)cc1,5.61751833
3029,CAWTIE,C19 H31 N7 O2,CCCNC(=O)c1cccc(n1)C(NCCC)=NC(=NC(=O)N(C)C)N(C)C,6.26977523
3030,CAWVIG,C20 H14 N4,N1C2=CC3=CC(=CC4=CC=C(N4)C=C4C=CC(=N4)C=C1C=C2)N=C3,4.1312324799999995
3031,CAWVOL,C28 H34 O8,CC=CCCC(=O)C12C(C3C(=C(O)C=CC=CC)C(=O)C1(C)C(=O)C3(C)O)C(C)(O)C(=C(C)C2=O)O,5.9304492600000005
3032,CAWWAA,C20 H17 N1 O5,COc1cc2C(=O)c3nccc4cc(OC)c(OC)c(c2cc1OC)c34,5.32309114
3033,CAXBAE,C14 H10 N2 S2,S1N=C(SC(=N1)c1ccccc1)c1ccccc1,5.82949502
3034,CAXBEI,C16 H10 N4 S3,S1N=C(N=C2SN=S=C2c2ccccc2)C(=N1)c1ccccc1,4.46429983
3035,CAXHIS01,C34 H26 O4,CC(=O)Oc1c2ccccc2c(CCc2c3ccccc3c(OC(C)=O)c3ccccc23)c2ccccc12,5.22812341
3036,CAXJOB,C30 H29 N3 O4,CCCCN(C(=O)C1=CC=CN(Cc2ccccc2)C1=O)C(=O)C1=CC=CN(Cc2ccccc2)C1=O,6.22759758
3037,CAXMOG,C28 H21 O2 P1,Cc1ccc(cc1)C1=C(c2ccccc2C1=O)P(=O)(c1ccccc1)c1ccccc1,5.916299329999999
3038,CAXNAT,C39 H24 N2 O1,N#Cc1c2OC(=C(c3ccccc3)c3cccc4Nc(c(c5ccccc5)c1c1ccccc1)c2c34)c1ccccc1,5.68609102
3039,CAXNIB,C30 H38 O6,CCCCCCOc1ccc(cc1)C(=O)C=C(O)C(O)=CC(=O)c1ccc(OCCCCCC)cc1,5.7786097299999994
3040,CAXQIC,C10 H7 F1 O3,CC1(F)C=CC2=C(C=CC(=O)O2)C1=O,6.102697330000002
3041,CAXQUO01,C9 H4 F2 O3,FC1(F)C(=O)C=CC2=C1OC(=O)C=C2,5.9285444599999995
3042,CAXZUZ,C15 H13 Cl1 N4,Nc1ccc(Cl)cc1NC1=NNC(=C1)c1ccccc1,6.0825609
3043,CAYBAI,C23 H25 F1 N4 O7,CC1(C)OC2OC(CN3C=C(CN4C(=O)C(=O)c5cc(F)ccc45)N=N3)C3OC(C)(C)OC3C2O1,6.04473707
3044,CAYBOW,C26 H22 O4,COc1ccccc1C(=O)C=Cc1ccc(C=CC(=O)c2ccccc2OC)cc1,5.841740140000001
3045,CAYBUC,C26 H22 O4,COc1cccc(c1)C(=O)C=Cc1ccc(C=CC(=O)c2cccc(OC)c2)cc1,5.78377989
3046,CAYGOB,C46 H34 Cl1 N7 O4,Clc1ccc(COC(=O)N(CCN2N=C(c3ccccc3)C(=C(C#N)C2=O)c2ccccc2)CCN2N=C(c3ccccc3)C(=C(C#N)C2=O)c2ccccc2)cc1,5.93806845
3047,CAYGUH,C45 H34 Cl1 N7 O2,Clc1ccc(CN(CCN2N=C(c3ccccc3)C(=C(C#N)C2=O)c2ccccc2)CCN2N=C(c3ccccc3)C(=C(C#N)C2=O)c2ccccc2)cc1,5.79439233
3048,CAYHAO,C45 H35 N7 O2,O=C1N(CCN(CCN2N=C(c3ccccc3)C(=C(C#N)C2=O)c2ccccc2)Cc2ccccc2)N=C(c2ccccc2)C(=C1C#N)c1ccccc1,5.58105508
3049,CAYMUL,C18 H19 N1 O3 S1,CN(C)c1ccc(C=CC(=O)CS(=O)(=O)c2ccccc2)cc1,5.87711495
3050,CAYPAU,C18 H18 N6 S2,CN1C=CN=C1SCc1nc2ccccc2nc1CSC1=NC=CN1C,5.89779559
3051,CAYQAU01,C13 H13 N1 O2,OCCNC=C1C(=O)C=Cc2ccccc12,5.73398306
3052,CAYSUQ,C24 H25 N1 O6,COC1=CC=C2c3c(CCC4=C2C(=C(C)N4C(C)=O)C1=O)cc(OC)c(OC)c3OC,5.62296061
3053,CAYVUV,C26 H14 N4 S4,S1C=CC=C1c1nnc(C2=CC=CS2)c2cc3c(cc12)c(nnc3C1=CC=CS1)C1=CC=CS1,4.84770825
3054,CAYWEF,C28 H32 O4,CCCCOC(=O)c1ccc(C=CC=CC=Cc2ccc(cc2)C(=O)OCCCC)cc1,5.04063696
3055,CAYXOR,C17 H10 Br2 O2 S5,BrS(Br)=C1SC(=C(SC(=O)c2ccccc2)S1)SC(=O)c1ccccc1,5.5601023000000005