,ID,formula,smiles,HOMO_LUMO_gap
6764,ERIVEH,C22 H21 N1 O2,COc1ccc(NC(C(=O)c2ccccc2)c2ccccc2)c(C)c1,5.22513015
6765,ERIVIK,C25 H18 Cl3 N3 O4,CC(=O)OCc1cnc(C)c2OC(=Nc3ccc(Cl)c(Cl)c3)C(=Cc12)C(=O)Nc1ccc(Cl)cc1,5.54867353
6766,ERIVOQ,C18 H20 Cl1 N3 O5,COC1=CC(=CC(=CNC(CO)(CO)CO)C1=O)N=Nc1cccc(Cl)c1,5.04499079
6767,ERIWAD,C18 H15 N1 O3,OC(c1ccccc1)=C1C(=O)CN(Cc2ccccc2)C1=O,6.28664629
6768,ERIWOT,C27 H36 Br3 N2 P1,CC(C)c1cccc(C(C)C)c1N1C=CN(c2c(cccc2C(C)C)C(C)C)C1=P(Br)(Br)Br,5.91112917
6769,ERIXIN,C18 H11 N1 O2 S1,O=C1OC(=NC1=CC1=CC=CS1)c1cccc2ccccc12,5.1307066599999995
6770,ERIZAH,C16 H12 O4,COc1ccc(C=C2Oc3ccccc3C2=O)c(O)c1,5.39520132
6771,EROBIY,C28 H25 Cl1 F4 N2 O5,CCOC(=O)C(F)(F)C1=C(c2ccc(Cl)cc2)C2=C(C(=O)N(C)C1)c1ccc(cc1N2C)C(F)(F)C(=O)OCC,6.02813813
6772,EROCAQ,C25 H16 F2 N2 O1,Fc1ccc(cc1)c1cc2NN(C(=O)c2c(c1)c1ccc(F)cc1)c1ccccc1,6.064057160000001
6773,EROCET,C22 H16 O4,COc1cc2C3c4ccccc4C(c2cc1OC)C1=C3C(=O)C=CC1=O,4.5320561800000005
6774,EROCEU,C20 H18 N2 O5 S1,CCOC(=O)C(=CNc1ccc2Sc3ncccc3C(=O)c2c1)C(=O)OCC,5.576701249999999
6775,EROCUK,C20 H21 N1 O6,COC(=O)C1Cc2cc(OC)c(OC)cc2C(=[N+]1[O-])c1ccccc1OC,5.871128440000001
6776,EROFOI,C16 H10 N2 O2,O=C1Oc2ccccc2C=C1N1C=C2C=CC=CC2=N1,5.5010536
6777,EROGEY,C12 H17 N1 O3 S1,CSCCC([NH2+]Cc1ccccc1O)C(=O)[O-],6.64148275
6778,EROMUU,C5 H4 O2 S3,S=C1SC2=C(OCCO2)S1,5.9791576300000004
6779,EROPEH,C16 H12 Cl2 N2 O2,Clc1ccc(NC(=O)C=CC(=O)Nc2ccc(Cl)cc2)cc1,6.1709979
6780,EROPUX,C14 H6 F6 O2,FC(F)(F)C(=O)C1=CC(=C2C=CC=CC=C12)C(=O)C(F)(F)F,5.49180173
6781,EROQUY,C22 H26 N4,CN(C)c1ccc(cc1)c1nc(C)c(nc1C)c1ccc(cc1)N(C)C,5.84391705
6782,ERORAF,C21 H15 Br1 N2 O2,Brc1ccc(NN=C(C(=O)c2ccccc2)C(=O)c2ccccc2)cc1,5.77480014
6783,EROROS01,C24 H12 S1,S1c2c3cccc4cccc(c34)c2c2c1c1cccc3cccc2c13,5.115740389999999
6784,ERORUY,C24 H12 S2,S1SC2=C(c3cccc4cccc2c34)C2=C1c1cccc3cccc2c13,4.34538608
6785,EROSAF,C24 H14 S2,S1C2C(SC3=C1c1cccc4cccc3c14)c1cccc3cccc2c13,5.3192815499999995
6786,EROTUB,C21 H22 O5,COc1ccc(cc1OC)C1C2=C(CCCC2=O)OC2=C1C(=O)CCC2,5.993851790000001
6787,EROVIR,C10 H12 Cl1 N3 O1 S1,CCNC(=S)NN=Cc1cc(Cl)ccc1O,5.708132239999999
6788,EROVUD,C22 H21 Br1 O1,BrCCCCCOCc1ccc2ccc3cccc4ccc1c2c34,5.59357231
6789,EROXIU,C24 H14 Br1 Cl1 F3 N1 O2,FC(F)(F)Oc1ccc(cc1)C1=Cc2cc(Br)cc(C(=O)C=Cc3ccc(Cl)cc3)c2N1,5.45452213
6790,EROXOZ,C14 H10 N2 S5,N#CCCSC1=CSC(S1)=C1SC=C(S1)c1ccncc1,5.13043453
6791,EROXUE,C12 H19 N5 S1,CC1=CC(=NN1)C=NNC(=S)N1CCCCCC1,5.975348039999999
6792,EROZUG,C13 H14 N4 S2,CC(=NNC(=S)SCc1ccccn1)C1=CC=CN1,5.822147950000001
6793,ERUBAV,C30 H32 N2 O2,Cc1ccc(CN(Cc2ccc(C)cc2)C2CCCCC2N2C(=O)c3ccccc3C2=O)cc1,6.151949930000001
6794,ERUDOL,C27 H24 N4 O5,COC(=O)c1nc(c2Nc3ccccc3c2c1C)c1ccc2c(OC)cc(NC(C)=O)c(OC)c2n1,5.84418917
6795,ERUGAA,C26 H21 Cl2 N1 O1,Clc1ccc(cc1)C=C1CN(Cc2ccccc2)CC(=Cc2ccc(Cl)cc2)C1=O,5.96881731
6796,ERUMIO,C13 H12,C=CC=CC1=Cc2ccccc2C1,5.84255649
6797,ERUMUB,C38 H32 N4 O2,CCCCCCN1c2ccc(cc2C(c2cc(ccc12)C#Cc1cccnc1)=C(C#N)C(=O)OCC)C#Cc1cccnc1,5.07383485
6799,ESADAF,C27 H21 N3 O2,COc1ccc(cc1)c1c2CCc3ccccc3c2nc2NN(C(=O)c12)c1ccccc1,5.89344177
6800,ESAFIO,C25 H17 Cl1 N2 O1,ClC(=NC(=O)c1ccccc1)C1(C#N)C2C=CC=CC=C2C=C1c1ccccc1,5.71602354
6801,ESAGIQ,C20 H14 N2 O4 S1,COc1cccc(C=NC2=NC(=CS2)C2=Cc3ccccc3OC2=O)c1O,5.74377916
6802,ESAHAI,C22 H31 O4 P1,CCOC(=O)C1=C(C)C(=C(P1C1(C)C(=C(C)C(=C1C)C)C)C(=O)OCC)C,5.30921333
6803,ESAKOA,C18 H16 O3 S1,CC(C)=C1C(=O)OC(=O)C1=C(C)C1=C(C)c2ccccc2S1,5.76445981
6804,ESASUO,C11 H13 N3 O1,NN1C(=O)C(=CC2=C1CCCCC2)C#N,6.1391605799999995
6805,ESAZAA,C24 H22 N2 O4,Cc1ccc(cc1)C1=C(N2CCOC2=O)C2=CC=C(C)C=CC2=C1N1CCOC1=O,5.23438203
6806,ESEDEM,C7 H13 N1 O5,[NH3+]C1CCC(O)C(O)(C1O)C(=O)[O-],5.2395521899999995
6807,ESEDOW,C34 H28 O16,COC(=O)c1c2cc3cc4c(cc3cc2c(C(=O)OC)c(C(=O)OC)c1C(=O)OC)c(C(=O)OC)c(C(=O)OC)c(C(=O)OC)c4C(=O)OC,4.38919641
6808,ESEGOA,C17 H12 O2 S1,Oc1ccccc1C(=O)C=CC1=CSc2ccccc12,5.89915617
6809,ESEHOA,C22 H22 N2 O5,CCCCCC(=O)NNC(=O)COc1cccc2C(=O)c3ccccc3C(=O)c12,5.94405495
6810,ESEMOG,C27 H26 N6 S3,N#CC1=CSC(=C1N1CCCC1)C1=C(C#N)C(=C(S1)C1=C(C#N)C(=CS1)N1CCCC1)N1CCCC1,4.92934241
6811,ESEMUM,C36 H34 N8 S4,N#CC1=CSC(=C1N1CCCC1)C1=C(C#N)C(=C(S1)C1=C(C#N)C(=C(S1)C1=C(C#N)C(=CS1)N1CCCC1)N1CCCC1)N1CCCC1,4.61722781
6813,ESEWOQ,C26 H22 N1 O2 P1 S1,O=C(CC(c1ccc[n+]([O-])c1)P(=S)(c1ccccc1)c1ccccc1)c1ccccc1,6.031403500000001
6814,ESEWUW,C26 H22 N1 O2 P1 S1,O=C(CC(c1cc[n+]([O-])cc1)P(=S)(c1ccccc1)c1ccccc1)c1ccccc1,6.0382063399999995
6815,ESEZAF,C17 H16 Br1 N1 O3,COC(=O)C1CN2C=CC=C2C1CC(=O)c1ccc(Br)cc1,6.00446423
6816,ESIHUK01,C15 H10 O4,OC(C1=CC=CO1)=C1C=CC=C1C(=O)C1=CC=CO1,5.161727630000001
6817,ESIVEJ,C20 H13 N1 O2,Cc1ccc(cc1)C1=C(C#N)C(=O)OC2=C1Cc1ccccc21,5.582415640000001
6818,ESIVOR01,C24 H32 O8,CC(C)OC(=O)C(C(=O)OC(C)C)=C1C=CC(C=C1)=C(C(=O)OC(C)C)C(=O)OC(C)C,4.88798109
6819,ESIWAE02,C40 H32 O8,O=C(OCc1ccccc1)C(C(=O)OCc1ccccc1)=C1C=CC(C=C1)=C(C(=O)OCc1ccccc1)C(=O)OCc1ccccc1,4.98458151
6820,ESIWEI01,C20 H20 Cl4 O8,ClCCOC(=O)C(C(=O)OCCCl)=C1C=CC(C=C1)=C(C(=O)OCCCl)C(=O)OCCCl,5.22431381
6821,ESIWEJ,C15 H12 Br1 N3 O3,CC1(C)OC2=C(C(N=[N+]=[N-])C1Br)C(=O)C(=O)c1ccccc21,5.82214795
6822,ESIWIO,C35 H30 N4 O3,COC(=O)C1(NC(=O)c2ccccc2)C(CN(C)C21c1ccccc1c1nc3ccccc3nc21)c1ccc(C)cc1,6.0003825200000005
6823,ESIWUY,C20 H20 Br4 O8,BrCCOC(=O)C(C(=O)OCCBr)=C1C=CC(C=C1)=C(C(=O)OCCBr)C(=O)OCCBr,5.04254177
6824,ESOFAV,C32 H18 O2,O=C1C=C(c2ccccc2)c2ccc3ccc4ccc5ccc6ccccc6c5c4c3c2C1=O,4.88036191
6825,ESOFID,C38 H24 N2 O1,O=C1C(=CC(=Nc2ccccc2)c2ccc3ccc4ccc5ccc6ccccc6c5c4c3c12)Nc1ccccc1,4.80607483
6826,ESOJAZ,C22 H21 N1 O6,COc1ccc2C(=C3N(CCc4cc(OC)c(OC)cc34)C(=O)c2c1OC)C=O,5.61915102
6827,ESOVEO,C20 H18 Br1 N1 O3,COC(=O)C(=O)CC(c1ccccc1)C1=CN(C)c2ccc(Br)cc12,6.0942618
6828,ESOVEP,C17 H13 N3 O1 S2,O=C(NC(=S)NC1=NC(=CS1)c1ccccc1)c1ccccc1,5.71738411
6829,ESOVIT,C17 H12 Br1 N3 O1 S2,Brc1ccc(cc1)C1=CSC(=N1)NC(=S)NC(=O)c1ccccc1,5.79275965
6830,ESUGEG,C17 H12 Cl3 N1 O2,CC1(C)C(Nc2ccccc12)=C1C(=O)C=C(Cl)C(=C(Cl)C1=O)Cl,5.8330325
6831,ESUGUW,C19 H17 Cl2 N1 O3,CCOC1=C(Cl)C(=O)C(C(=O)C=C1Cl)=C1Nc2ccccc2C1(C)C,5.766636719999999
6832,ESUHUX,C19 H16 S3,S=C1SC=C(S1)c1cc2CCc3ccc(CCc1cc2)cc3,6.16446717
6834,ESUMIQ,C40 H44 N2,CC(C)(C)c1cc2c3cc(cc4c5cc(cc6c7cc(cc8c(c1)c2N(N(c78)c56)c34)C(C)(C)C)C(C)(C)C)C(C)(C)C,4.99737086
6835,ESUYEW,C6 H2 Br2 N2 S1,BrC1=CC=C(Br)C2=NSN=C12,5.92908868
6836,ETABUW,C16 H10 F9 N3 O3 S1,Oc1ccc(cc1)N=Nc1ccccc1NS(=O)(=O)C(F)(F)C(F)(F)C(F)(F)C(F)(F)F,5.9252791
6837,ETACAD,C16 H10 F9 N3 O3 S1,Oc1ccccc1N=Nc1ccccc1NS(=O)(=O)C(F)(F)C(F)(F)C(F)(F)C(F)(F)F,6.007457479999999
6838,ETAHAJ,C29 H28 Cl1 N3 O6 S1,CCOC(=O)C1=C(CC(c2ccc(Cl)cc2)C2(NC=C(C(=O)Nc3ccc(C)cc3)C2=S)C(=O)OCC)OC=N1,5.367445699999999
6839,ETAHOX,C29 H25 N1 O2,Cc1ccc(cc1)C1N(C(=O)C2=C(OCC2)C1=CC=Cc1ccccc1)c1ccccc1,5.4801008399999995
6840,ETANIY,C15 H10 O5,Cc1cc(O)c2C(=O)c3c(O)cc(O)cc3C(=O)c2c1,6.1402490300000006
6841,ETARUM,C30 H25 N3 O4 S2,CN(C)c1cccc2c1cccc2S(=O)(=O)Nc1ccc(NC2=CC(=O)C(=CC2=O)Sc2ccccc2)cc1,4.761992380000001
6842,ETAWIG,C20 H14 N4,c1ccc2c(c1)c(N1C=CN=C1)c1ccccc1c2N1C=CN=C1,5.37370432
6843,ETCNPD,C14 H13 N1 O2,CCOC(=O)C(=CC=Cc1ccccc1)C#N,5.7908548600000005
6844,ETCYPY01,C8 H10 N2 S1,CCc1cc(ccn1)C(N)=S,6.10079253
6845,ETEMOH,C15 H10 Cl1 N3 O1,COc1ccc(cc1)c1nc(Cl)c(C#N)c(C#N)c1C,5.9549395
6846,ETEPAU,C24 H21 N3 O1,Cc1ccccc1NC(c1ccccc1)=C1C(=NN(c2ccccc2)C1=O)C,6.05534952
6847,ETERUS,C11 H12 O2 S2,COc1ccccc1C(O)=CC(=S)SC,5.6001030400000005
6848,ETESAZ,C10 H10 O2 S2,CSC(=S)C=C(O)c1cccc(O)c1,5.58323198
6849,ETESTR,C21 H24 O2,CC1=CC2=C3CCC(=O)C=C3CCC2C2CCC(O)(C#C)C12C,5.8490872199999995
6850,ETEWAB,C16 H12 N2 O2,Oc1cccnc1NC=C1C(=O)C=Cc2ccccc12,5.32091423
6851,ETEWOP,C16 H14 N2 O2 S1,COc1ccc2N=C(Nc2c1)SCC(=O)c1ccccc1,6.10677903
6852,ETEXAC,C26 H28 Cl2 N4 O4,CC(=O)N1CCN(CC1)c1ccc(OCC2COC(CN3C=CN=C3)(O2)c2ccc(Cl)cc2Cl)cc1,6.33889215
6853,ETEZUY,C20 H23 N5,CN(C)C(=Nc1ccccc1Nc1cccc2cccnc12)N(C)C,5.40227627
6854,ETGLAU01,C23 H22 O10,CCOC(=O)C1=CC(=C(C)O)C(=O)OC1=CC=CC1=C(C=C(C(C)=O)C(=O)O1)C(=O)OCC,4.48715739
6855,ETHHEL,C32 H20,C1Cc2cccc3c2ccc2ccc4ccc5ccc6ccc7cc1ccc7c6c5c4c32,4.9105665499999995
6856,ETICOA,C42 H55 N3,CC(C)c1cc(C(C)C)c(c(c1)C(C)C)c1ccccc1NN=Nc1ccccc1c1c(cc(cc1C(C)C)C(C)C)C(C)C,5.91058495
6857,ETIFES,C22 H26,CC(C)(C)C1=CC(=CC#Cc2ccccc2)C(=C1)C(C)(C)C,5.6006472700000005
6858,ETIFIW,C28 H18,c1ccc(cc1)C#CC(c1ccccc1)=C1c2ccccc2c2ccccc12,5.45642693
6859,ETIGEV01,C21 H22 O7,CCc1c(C)cc2C(=O)C3=C(OC(C)(C(=O)OC)C(=O)C3(C)C)C(=O)c2c1O,6.213991889999999
6860,ETIGIZ01,C14 H13 Br1 O6,COC(=O)C1(C)OC2=C(C(=O)C(=CC2=O)Br)C(C)(C)C1=O,5.9331704
6861,ETIHAQ,C27 H20 Cl2 N2 O3 S1,CCOC(=O)C1=C(C)N=C2SC(=Cc3cccc4ccccc34)C(=O)N2C1c1c(Cl)cccc1Cl,5.29778456
6862,ETIMAV,C22 H22 N2 O5,COC(=O)C1=C2C=C(C=CN2C(=C1C(=O)OC)C(=O)c1ccc(C)cc1)N(C)C,5.8107191600000005
6864,ETIMUP,C30 H21 N1 O3,CN1CC(c2ccccc2)C2(C(=O)c3ccccc3C2=O)C21C(=O)c1cccc3cccc2c13,5.82296429
6865,ETINEA,C29 H26 N2 O6,COc1cc(cc(OC)c1OC)C1CN(C)C2(C(=O)Nc3ccccc23)C21C(=O)c1ccccc1C2=O,5.842828600000001
6866,ETINIE,C10 H12 N2 O1 S1,CCNC(=S)NC(=O)c1ccccc1,6.02596122
6867,ETIPEC,C24 H18 N4 O4,O=C1N(CCc2ccccn2)C(=O)c2cc3C(=O)N(CCc4ccccn4)C(=O)c3cc12,6.29127223
6869,ETIRUU,C15 H17 N1 O4,COc1ccccc1C(O)=C1C(=O)CN(C(C)C)C1=O,6.6248838
6870,ETITOQ,C20 H15 N1 O1,COc1ccc(cc1)N=C1c2ccccc2c2ccccc12,5.68336989
6871,ETIXAG,C16 H8 Br2 N2 S2,BrC1=CC=C(S1)c1nc2ccccc2nc1C1=CC=C(Br)S1,5.63928744
6872,ETOAZC,C20 H24 N2 O4,CCOc1ccc(C(C)=NN=C(C)c2ccc(OCC)cc2O)c(O)c1,5.91765991
6873,ETOBOE,C21 H19 Br1 N2 O5,COC(=O)C1=C2C=C(C=CN2C(=C1C(=O)OC)C(=O)c1ccc(Br)cc1)N(C)C,5.73316671
6874,ETOBUK,C15 H12 N2 O6,CC(=O)Oc1ccc2C(=CC(=O)Oc2c1C[N+]1=NOC(=C1)[O-])C,5.78622892
6875,ETOHAW,C29 H25 O4 P1,COC(=O)C=C(C(=O)OC)C1=CC=CC1=P(c1ccccc1)(c1ccccc1)c1ccccc1,5.25288577
6876,ETOHUQ,C13 H9 Cl1 N2 O2,Oc1ccc(cc1C=O)N=Nc1ccccc1Cl,6.05779854
6877,ETOJAY,C17 H18 Cl1 N3 O4,OCC(CO)(CO)NC=C1C=C(C=CC1=O)N=Nc1ccccc1Cl,5.25642325
6878,ETOLOO,C23 H18 O3 S3,Cc1ccc(SC2=C(Sc3ccc(C)cc3)S(=O)(=O)c3ccccc3C2=O)cc1,5.30513163
6879,ETOMAB,C25 H17 F2 N3 O1 S1,CC(c1ccc(c(F)c1)c1ccccc1)C1=NN2C(=N1)SC(=Cc1ccccc1F)C2=O,5.88827161
6880,ETONEG,C12 H9 Br1 N2 O1,Brc1ccc(cc1)N=[N+]([O-])c1ccccc1,6.005552679999999
6881,ETONUX,C12 H11 N1 O2 S1,CCSC=C1N=C(OC1=O)c1ccccc1,5.72119371
6882,ETOWAN,C23 H20 N2 O4 S1,COc1ccc(OC)c(c1)C=C1SC(=Nc2ccccc2)N(CC2=CC=CO2)C1=O,5.82922291
6883,ETOWOB,C24 H22 N2 O3 S1,CC(C)Oc1ccc(cc1)C=C1SC(=Nc2ccccc2)N(CC2=CC=CO2)C1=O,5.919564700000001
6884,ETOXAO,C32 H21 N3 O1,O1C(=NN=C1c1ccc(cc1)c1ccc(cc1)N1c2ccccc2c2ccccc12)c1ccccc1,5.68200931
6885,ETPHFU,C40 H36 O6,CCOC1(OCC)Oc2c3ccccc3c3ccccc3c2C1=C1c2c(OC1(OCC)OCC)c1ccccc1c1ccccc21,5.278192360000001
6886,ETUCAZ,C16 H8 Br1 N1 O1,Brc1cc2ccnc3c4ccccc4C(=O)c(c1)c23,5.61370874
6887,ETUCON,C28 H16 N4 O1,O=C1c2ccccc2c2nccc3C4=C(NC(=C4C=C1c23)c1ccccn1)c1ccccn1,5.08417519
6888,ETUNEM,C34 H36 S2,CC(C)(C)c1cc2cc3CSCc4cccc(CSCc5cc6cc(cc3c6c2c5c1)C(C)(C)C)c4,5.558469629999999
6889,ETUREQ,C22 H19 Cl1 N2 O1,CN1c2ccc(Cl)cc2C(C)(C)C21Oc1ccc3ccccc3c1N=C2,6.11330976
6890,ETUWOH,C8 H10 N2 O1 S1,CCc1cc(ccn1)C(=[NH2+])S[O-],5.42731075
6891,ETUZIC,C34 H38 O6,CC(C)=CCc1c2OC(C)(C)C=Cc2c(O)c2C(=O)C3=CC4CC5C(C)(C)OC(CC=C(C)C=C)(C4=O)C35Oc12,6.016165119999999
6892,ETYLRD,C8 H9 N1 O1 S4,CCN1C(=O)C(SC1=S)=C1SCCS1,5.72554753
6893,ETZPCN,C25 H23 N3 O8,CCOC(=O)N1C=C(N2N(c3ccccc3c3ccccc23)C(=C1C(=O)OC)C(=O)OC)C(=O)OC,6.10052041
6894,EUPRAM,C16 H12 N2 O2,COc1c2ccccc2c2nccc3C(=O)N(C)c1c23,5.71956102
6895,EVABIN,C21 H20 N2 O4,Oc1ccc(C=NC2CCCCC2N2C(=O)c3ccccc3C2=O)c(O)c1,5.86160446
6896,EVACEL,C24 H20 Cl2 N4,Clc1ccc2CCC3=C(Nc4ccccc4NC43CCCc3ccc(Cl)nc43)c2n1,5.91221763
6897,EVAGUE,C20 H19 Cl1 N4 O4 S1,CC(Nc1ccc(Cl)cc1)=CC(O)=C1C(=NN(c2ccc(cc2)S(N)(=O)=O)C1=O)C,4.93478468
6898,EVALIX,C16 H16 N4 O2 S1,CC1=NN(C(CC(=O)c2ccccc2)C2=CC=CO2)C(=S)N1N,5.5908511700000005
6899,EVALIY,C13 H13 N3 O1,CC1=CC(=Nc2ccc(N)cc2)C(=CC1=O)N,4.91219923
6900,EVAMAP,C35 H23 Br1 Cl3 N1 O3,COC(=O)C1=C2C=CC=C2C(C(N1C(=O)c1ccc(Br)cc1)c1ccc(Cl)cc1)(c1ccc(Cl)cc1)c1ccc(Cl)cc1,5.74813297
6901,EVAMEU,C10 H12 N6,Cc1nnc(nc1C)c1nnc(C)c(C)n1,6.74406967
6902,EVANEU,C30 H26 O6,COC(=O)C1(C)C(=O)c2ccccc2C(=O)C1=CC=C(c1ccc(OC)cc1)c1ccc(OC)cc1,4.96716623
6903,EVAROJ,C13 H13 N1 S1,Cc1ccc2NC3=C(CCCC3=S)c2c1,5.4901690499999996
6904,EVAVAZ,C22 H20 N2 O4,COc1cc(ccc1OCC#C)C=NN=Cc1ccc(OCC#C)c(OC)c1,5.89643503
6905,EVAWED,C19 H16 N2 O3,Cc1ccc(cc1)C=CC(=O)C1=C([O-])ON=[N+]1c1ccc(C)cc1,5.83439306
6906,EVAWEF,C25 H21 N3 O1,CN(C)c1ccc(cc1)C1=NN(c2ccccc2)C(=C1)C1=Cc2ccccc2O1,5.8153451
6907,EVAWIH,C16 H12 N2 O4 S1,COc1ccc(cc1)[N+]1=NOC(=C1C(=O)C=CC1=CC=CS1)[O-],5.57915028
6908,EVAWON,C18 H16 N4 O2,Cc1ccc(cc1)[N+]1=NOC(=C1C1=NNC(C1)c1ccccc1)[O-],5.45316157
6909,EVAYAC,C15 H14 N2,Cc1ccc(NCc2ccc(cc2)C#N)cc1,6.03439675
6910,EVAYEG,C38 H32 N2 O2,CN1CC(c2cccc3ccccc23)C2(CCc3ccccc3C2=O)C21C(=O)N(Cc1ccccc1)c1ccccc21,6.28365303
6911,EVAZAC,C30 H28 O2,C1CCC2=C(OC(=C2C1)C=CC1=C2CCCCC2=C(O1)c1ccccc1)c1ccccc1,5.039820630000001
6914,EVEFAN01,C14 H15 N1 O3,CCN(CC)c1ccc2C=C(C=O)C(=O)Oc2c1,5.563911900000001
6915,EVEFER,C13 H12 N4 O2,COc1ccccc1C=NNC(=O)c1cnccn1,6.083377250000001
6916,EVEFOB,C21 H22 N2 O4,CCOC(=O)CN1C(=O)c2cccc3c(ccc(C1=O)c23)N1CCCCC1,5.59057906
6918,EVEFUH,C30 H22 O1,O=C(c1ccccc1)C1=C(CC(=C1c1ccccc1)c1ccccc1)c1ccccc1,5.81371241
6919,EVEHES,C18 H10 S1,S1c2cccc3ccc4ccc5cccc1c5c4c23,5.56064653
6920,EVEHOD,C27 H28 N2 O7,CC(C)(C)OC(=O)CN1C(=O)N(CC(=O)OC(C)(C)C)c2c1ccc1C(=O)c3ccccc3C(=O)c21,5.36581302
6922,EVEKIA,C22 H19 Cl1 N2 O1 S1,Clc1cccc(c1)C(=O)NC(=S)N(Cc1ccccc1)Cc1ccccc1,6.21589669
6923,EVELOH,C30 H28 N2 O2,COc1ccc(cc1)C=Nc1ccc(cc1C)c1ccc(N=Cc2ccc(OC)cc2)c(C)c1,5.65507004
6924,EVEMAU,C17 H13 N3 O2,Oc1ccc2ccccc2c1C=NNC(=O)c1cccnc1,5.9603817900000005
6925,EVENID,C24 H18 N2 O2,Oc1ccccc1C=Nc1cccc2c(cccc12)N=Cc1ccccc1O,5.68826793
6926,EVEPAX,C14 H12 N2 O1,Nc1ccc(cc1)C(=O)C=Cc1cccnc1,5.86731884
6927,EVESIJ04,C10 H8 N4,c1cc(ccn1)N=Nc1ccncc1,6.72556593
6928,EVESOO,C24 H21 Cl1 N4 O1 S1,Cc1ccc(cc1)C1=NN(C(CC(=O)c2ccccc2)c2ccccc2Cl)C(=S)N1N,5.6640498
6929,EVESUU,C23 H19 Cl1 N4 O1 S1,NN1C(=S)N(N=C1c1ccccc1)C(CC(=O)c1ccccc1)c1ccccc1Cl,5.68990061
6930,EVEYUA,C20 H14 Br1 N3 O3 S1,COc1ccccc1C=NNC1=NC(=CS1)C1=Cc2cc(Br)ccc2OC1=O,5.356289029999999
6931,EVEZEM,C32 H28 O2,CCCOc1ccc(cc1)C#Cc1cccc2cccc(C#Cc3ccc(OCCC)cc3)c12,5.67683914
6932,EVEZIQ,C38 H40 O4,CCCOc1ccc(OCCC)c(c1)C#Cc1cccc2cccc(C#Cc3cc(OCCC)ccc3OCCC)c12,5.42703863
6933,EVIBER,C16 H12 F1 N1 O3,COc1ccc(CN2C(=O)C(=O)c3cc(F)ccc23)cc1,5.80119518
6934,EVIBIV,C15 H13 N1 O4,CC1(C)OC(=O)C(=CC2=CNc3ccccc23)C(=O)O1,5.8194268099999995
6935,EVIFAR,C23 H17 N1 O3 S1,COc1ccc(cc1)C1=NOC2(Sc3ccccc3C2=O)C1c1ccccc1,6.13453465
6936,EVIFEU,C15 H11 Cl1 N2 O2,Cc1cc(N)ccc1N1C(=O)c2ccc(Cl)cc2C1=O,5.53697263
6937,EVIFOF,C21 H30 N2 O5 S1,CCOC(=O)C(=Cc1ccc(cc1OC(=S)N(C)C)N(CC)CC)C(=O)OCC,5.91684356
6938,EVIGIB,C19 H19 N3 O1 S1,CCN1C(=O)C(SC1=Nc1ccc(CC)cc1)=Cc1ccncc1,5.84691031
6939,EVIGOH,C24 H27 N3 O1 S1,CCc1ccc(cc1)N=C1SC(=Cc2ccncc2)C(=O)N1CC1CCCCC1,5.864597699999999
6940,EVIGUL,C19 H19 N1 O3 S1,COC(=O)C1=C(NC(=O)C=Cc2ccccc2)SC2=C1CCCC2,5.9707221
6941,EVIGUN,C9 H13 N5 S1,CN(C)c1cccnc1C=NNC(N)=S,5.38377253
6942,EVIJID,C15 H11 Cl2 N1 O1,Nc1ccc(cc1)C(=O)C=Cc1ccc(Cl)cc1Cl,5.912489750000001
6943,EVIKID,C30 H21 Cl2 N1,Clc1ccc(cc1)N(c1ccc(Cl)cc1)c1ccc(cc1)C=Cc1cccc2ccccc12,5.64364126
6944,EVIMAY,C13 H12 Cl1 N3 O1,COc1cc(N)ccc1N=Nc1ccc(Cl)cc1,5.54758507
6945,EVIMOM,C25 H18 N2,N#CC(=Cc1cccc2ccccc12)N(c1ccccc1)c1ccccc1,5.98977007
6946,EVINUS,C18 H15 N1 O2,Cc1ccc(O)c(NC=C2C(=O)C=Cc3ccccc23)c1,5.32499594
6947,EVIPAC,C26 H26 N2 O1,Cc1cccc2C=C(CC3CCCCC3)N(C(=O)c12)c1cccc2cccnc12,5.73262249
6948,EVIPII,C24 H27 N3 O3 S1,CCOC(=O)C(CCSC)NC(c1ccccc1)=C1C(=NN(C1=O)c1ccccc1)C,6.19385546
6949,EVIPOQ,C23 H26 N2 O1,CC1=C(C)C(=O)N(C(=C1)CC1CCCCC1)c1cccc2cccnc12,5.62731443
6950,EVISUZ,C37 H26 N2 O7,COc1ccc2c(c1)c1c3N(CCc4cc5OCOc5c2c34)C(=O)N2CCc3cc4OCOc4c4c5ccc(OC)cc5c1c2c34,5.787861599999999
6951,EVITAC,C21 H30 O2,CCC(=CC=CC(C)=CC(O)=O)C=CC1=C(C)CCCC1(C)C,5.32744497
6952,EVIWAI,C18 H16 Cl1 N3 S1,CN(C)c1ccc(cc1)C=NC1=NC(=CS1)c1ccc(Cl)cc1,5.58649735
6953,EVIWOX,C21 H14 N2 O2,O=C1N(CC(C#N)c2cccc3ccccc23)C(=O)c2ccccc12,5.95902121
6954,EVIYEP,C35 H26 F3 N3 O4,CCOC(=O)c1cccc2cccc(c12)c1c2N(N=C(c3ccccc3)c2nc(c1C(=O)OCC)C(F)(F)F)c1ccccc1,5.707315899999999
6955,EVIYIT,C20 H18 N2 O3 S1,O=C1OCCN1CCN1C(=O)C(Sc2ccccc12)=Cc1ccccc1,5.80418843
6956,EVIYOY,C14 H10 O2,Cc1ccc2ccc(C)c3C(=O)C(=O)c1c23,6.26378872
6957,EVIZOZ,C37 H26 N4 O7,O=C1N(CCCN2C(=O)c3ccccc3C2=O)c2ccc3C(=O)c4ccccc4C(=O)c3c2N1CCCN1C(=O)c2ccccc2C1=O,5.27519911
6958,EVIZUF,C37 H24 N2 O3,O=C1N(Cc2ccc3ccccc3c2)c2ccc3C(=O)c4ccccc4C(=O)c3c2N1Cc1ccc2ccccc2c1,5.43248092
6959,EVOBUN,C17 H16 N6 O2 S1,CCOC(=O)C(=NNC1=NNc2nc(C)c(C)c(C3=CC=CS3)c12)C#N,6.00310365
6960,EVOCOJ,C15 H12 Cl1 N1 O1,Nc1ccc(cc1)C(=O)C=Cc1cccc(Cl)c1,5.80854225
6961,EVOFEC,C50 H34 N2,c1ccc(cc1)N(c1ccccc1)c1ccc(cc1)C#Cc1ccc(C#Cc2ccc(cc2)N(c2ccccc2)c2ccccc2)c2ccccc12,5.15410844
6962,EVOFIF,C17 H14 N2 O2 S1,N#CC1=C(SC2=C1CCCC2)N=Cc1ccc2OCOc2c1,5.62350484
6963,EVOFOL,C26 H21 N3 O1,CN1N(c2ccccc2)C(=O)C(=C1C)N=Cc1c2ccccc2cc2ccccc12,5.13369991
6964,EVOGAY,C15 H12 N4 O2,Nc1cccc(c1)C(=O)NN=C1C(=O)Nc2ccccc12,5.52581596
6965,EVOLOR,C43 H32 F6 N2 S2,CCN1c2ccccc2c2cc(ccc12)C1=CC(=C(C)S1)C1=C(C2=C(C)SC(=C2)c2ccc3N(CC)c4ccccc4c3c2)C(F)(F)C(F)(F)C1(F)F,5.578878159999999
6966,EVOMOS,C25 H23 N3 O3 S1,COC(=O)C(Cc1ccccc1)NC(C1=CC=CS1)=C1C(=NN(C1=O)c1ccccc1)C,6.04092748
6967,EVOPAH,C18 H12 O4,OC1=C(C(=O)Oc2ccccc12)C(=O)C=Cc1ccccc1,5.6346615
6968,EVOPIQ,C30 H22 N2 S2,N#CC(SCc1ccc(cc1)c1ccccc1)=C(SCc1ccc(cc1)c1ccccc1)C#N,5.85208047
6969,EVOPOV,C10 H6 N2 O1,O=C1C=Cc2ccccc2C1=[N+]=[N-],5.842284380000001
6970,EVOQEM,C6 H11 N3 O2 S1,CCOC(=O)C(C)=NNC(N)=S,6.21589668
6971,EVOQOV,C22 H14 O6,Cc1cc(O)c2C(=O)C=C(C(=O)c2c1)c1c(C)cc2C(=O)C=CC(=O)c2c1O,5.931537710000001
6972,EVOSAK,C19 H22 N4 O2 S1,COc1ccc(cc1)C(C)=NNC(=S)NN=C(C)c1ccc(OC)cc1,5.916843569999999
6973,EVOTUE,C15 H18 N1 O3 P1,CCOP(=O)([O-])C([NH2+]c1ccccc1)c1ccccc1,6.37889288
6974,EVOVAM,C21 H22 N3 O3 P1,CCOP(O)(=O)C(Nc1ccc(cc1)N=Nc1ccccc1)c1ccccc1,5.98840951
6975,EVOVUI,C27 H18 N2,c1ccc(cc1)C1=C2C=CC=CN2C(=N1)c1c2ccccc2cc2ccccc12,5.10104624
6976,EVOWUH,C15 H14 N2 O3,COc1cc(cc(C=O)c1O)N=Nc1ccc(C)cc1,5.95466739
6977,EVOXAO,C15 H14 N2 O3,COc1cc(cc(C=O)c1O)N=Nc1ccccc1C,5.84691031
6978,EVOXES,C13 H11 N1 O3,Oc1ccc(NC=C2C=CC(=CC2=O)O)cc1,5.334247810000001
6979,EVOXIW,C13 H11 N1 O3,Oc1ccc(NC=C2C=CC=C(O)C2=O)cc1,4.9568259
6980,EVOYUL,C8 H10 N4 S2,CSC(=S)NN=C(C)c1cnccn1,6.201202539999999
6981,EVUBAA,C22 H23 Cl2 N3 O2,Clc1cccc(N2CCN(CCCCN3C(=O)c4ccccc4C3=O)CC2)c1Cl,5.99575658
6982,EVUBOO,C23 H25 Cl2 N3 O2,Clc1cccc(N2CCN(CCCCCN3C(=O)c4ccccc4C3=O)CC2)c1Cl,6.2101822900000005
6983,EVUCAB,C24 H27 Cl2 N3 O2,Clc1cccc(N2CCN(CCCCCCN3C(=O)c4ccccc4C3=O)CC2)c1Cl,6.11793571
6984,EVUHAG,C27 H23 N1 O3,CCOC(=O)c1c(C=Cc2ccc(OC)cc2)nc2ccccc2c1c1ccccc1,5.61234817
6985,EVUHEK,C22 H17 Br1 N2 O1 S1,COc1ccc(cc1)N1C=C(N(C1=S)c1ccccc1)c1ccc(Br)cc1,5.90214941
6986,EVULIQ,C28 H24 N2 O4,COc1cc(ccc1N=Cc1ccccc1O)c1ccc(N=Cc2ccccc2O)c(OC)c1,5.5992867
6988,EVUROE,C37 H48 N1 O1 P1,CC(C)C1COC(=N1)c1cccc(c1)C(=Pc1c(cc(cc1C(C)(C)C)C(C)(C)C)C(C)(C)C)c1ccccc1,5.9214695
6989,EVURUK,C28 H30 N1 O1 P1,CC(C)C1COC(=N1)c1cccc(c1)C(=Pc1c(C)cc(C)cc1C)c1ccccc1,5.91439454
6990,EVUTAS,C29 H20 F6 N2 S1,CN1C(=C(c2ccccc12)C1=C(C2=C(C)SC(=C2)c2cnc3ccccc3c2)C(F)(F)C(F)(F)C1(F)F)C,5.93208194
6991,EWACAH,C24 H19 N2 P1 S2,S1c2ccccc2N=S1N=P(c1ccccc1)(c1ccccc1)c1ccccc1,5.48554311
6993,EWACUB,C6 H6 N2 O1 S2,Nc1ccccc1SN=S=O,6.03684578
6994,EWADIQ,C24 H16 F3 N2 P1 S2,Fc1cc(F)c2SS(=Nc2c1F)N=P(c1ccccc1)(c1ccccc1)c1ccccc1,5.493434410000001
6995,EWAFOZ,C24 H21 N1 O1,CCc1cccc2C(C)C3(Nc12)C(=O)c1ccccc1c1ccccc31,5.45860384
6996,EWAGUG,C40 H33 N3,Cc1cccc(C)c1N=Cc1c2cccc(C(C)=Nc3c(C)cccc3C)c2nc2c3ccccc3c3ccccc3c12,5.25587902
6997,EWAHOZ,C28 H26 N2 O2,Oc1ccc2ccccc2c1C=NC1CCCCC1NC=C1C(=O)C=Cc2ccccc12,5.647178739999999
6998,EWAYIL,C24 H19 N1 O1,[O-][N+]1=C(c2ccccc2)C(=CC=Cc2ccccc2)C1c1ccccc1,5.30812488
6999,EWEDIU,C23 H33 N3 O3 S1,CSC(NC=C(C(C)=O)C(C)=O)=NN=Cc1cc(cc(c1O)C(C)(C)C)C(C)(C)C,5.786501030000002
7000,EWEHUL,C14 H15 Cl1 N2 O3,CC(C)(C)OC(=O)Nc1ccc2cc(Cl)ccc2[n+]1[O-],5.83711421
7003,EWELAU,C26 H15 P1 S1,S=P12c3cccc4cccc(c5cccc(c6cccc7cccc1c67)c25)c34,5.4028205