,ID,formula,smiles,HOMO_LUMO_gap
4917,DICPAG,C26 H14 N2 O4,CN1C(=O)c2ccc3c4ccc5C(=O)N(C)C(=O)c6ccc(c7ccc(C1=O)c2c37)c4c56,4.32905925
4918,DICPEK,C40 H26 N2 O6,COc1ccc(CN2C(=O)c3ccc4c5ccc6C(=O)N(Cc7ccc(OC)cc7)C(=O)c7ccc(c8ccc(C2=O)c3c48)c5c67)cc1,4.247152980000001
4919,DICPIO,C38 H22 N2 O4,O=C1N(Cc2ccccc2)C(=O)c2ccc3c4ccc5C(=O)N(Cc6ccccc6)C(=O)c6ccc(c7ccc1c2c37)c4c56,4.2019820800000005
4920,DICTUF,C37 H27 Br1 O4,Cc1ccccc1c1c(C)c(COC(=O)c2ccc(Br)cc2)c(c2ccccc2C)c2C(=O)c3ccccc3C(=O)c12,5.95575585
4921,DICTUH,C22 H22 N4,CC1=NC23C=CC=CC42N=C(C)C=C(C)N4c2ccccc2N3C(=C1)C,6.00500846
4922,DICXAO,C26 H16 N2 O1,O(c1c2ccccc2nc2ccccc12)c1c2ccccc2nc2ccccc12,5.61316451
4923,DICYAP,C22 H17 N1 S1,Cc1ccc(cc1)N=C1SC(=C1c1ccccc1)c1ccccc1,5.54785719
4924,DICYIZ,C58 H36,c1ccc(cc1)c1c2c3ccccc3c3ccccc3c2c(c2ccccc2)c2c(c3ccccc3)c3c4ccccc4c4ccccc4c3c(c3ccccc3)c12,5.01505826
4925,DICZUL,C28 H24 N2 S4,CSc1ccc(cc1)C=Nc1ccccc1SSc1ccccc1N=Cc1ccc(SC)cc1,5.82459697
4926,DIDGUV,C28 H18 N2 O2,Oc1cc2ccccc2cc1C(=O)NN=Cc1ccc2ccc3cccc4ccc1c2c34,4.8980493
4927,DIDHED,C26 H27 N1 O8,COC(=O)CC1(C2CCc3cccc4c3N2C23OC(=O)C(=CC(=O)OC)C42CCCC13)C(=O)OC,6.225964899999999
4928,DIDHEE,C50 H44 N2,CC(C)(C)c1ccc(cc1)c1cc(c2ccccc2)c2cc(ccc2n1)c1ccc2nc(cc(c3ccccc3)c2c1)c1ccc(cc1)C(C)(C)C,5.569626300000001
4929,DIDHII,C42 H28 N2,c1ccc(cc1)c1cc(c2ccccc2)c2cc(ccc2n1)c1ccc2nc(cc(c3ccccc3)c2c1)c1ccccc1,5.54187068
4930,DIDKOR,C17 H16 N4 O1 S1,CSC1=C(C#N)C(=N)N2CCCNC2=C1C(=O)c1ccccc1,5.91140129
4931,DIDLOR,C25 H26 O8,CCCc1c(C(=O)OC)c(OC)cc2C(=O)C3=C(C(=O)c12)C(=C(C)C(=O)C3(C)C)OC(C)=O,5.64826719
4932,DIDNUB,C24 H18 O4,Oc1ccccc1C(=O)C=Cc1ccc(C=CC(=O)c2ccccc2O)cc1,5.855890070000001
4933,DIDQOY,C25 H22 N4 O1 S1,CC1=NN(C(CC(=O)c2ccccc2)c2ccccc2)C(=S)N1N=Cc1ccccc1,5.82650177
4934,DIDRAL,C21 H18 N2 O3,COc1cccc(C=Nc2ccccc2N=Cc2ccccc2O)c1O,5.93153772
4935,DIDXUL,C14 H10 N2 O1,O=C1N=C2C=CC=CN2C1=Cc1ccccc1,5.30594797
4936,DIDZAR,C9 H6 Cl1 F3 N4,FC(F)(F)C1=NNC(=NN1)c1ccc(Cl)cc1,6.33889215
4937,DIDZIB,C28 H39 P1,CC(C=Cc1ccccc1)=Pc1c(cc(cc1C(C)(C)C)C(C)(C)C)C(C)(C)C,5.38404465
4938,DIFBAY,C16 H9 F3 O4 S2,FC(F)(F)S(=O)(=O)C(=C)C(=C1Oc2ccccc2C1=O)C1=CC=CS1,5.486631559999999
4939,DIFCUT,C18 H12 F3 N1 O4 S2,CC(=O)N1c2ccccc2C2=C1C(=C(CO2)S(=O)(=O)C(F)(F)F)C1=CC=CS1,5.5998309299999995
4940,DIFNOW,C25 H21 Br1 O7,COc1ccc(CC2(O)COc3cc(OC(=O)c4ccc(Br)cc4)ccc3C2=O)cc1OC,5.92446276
4941,DIFPOZ,C19 H19 N5 O3,CN1C(=O)N(C)C2=C(N3C=C(C=Cc4ccccc4)N(CCO)C3=N2)C1=O,5.76092233
4942,DIFQEP,C25 H18 N2 O2,COc1cc(C)c(c(C)c1)C1=C2C=CC(C=C2Oc2ccccc12)=C(C#N)C#N,4.10402109
4943,DIFROZ01,C8 H11 N5 S1,CNC(=S)NN=C(N)c1ccccn1,5.72663599
4944,DIFRUF,C16 H17 N1 O5 S2,COC(=O)c1ccccc1S(C)=NS(=O)(=O)c1ccc(OC)cc1,6.32501434
4945,DIFVET02,C10 H12 S8,CSC1=C(SC)SC(S1)=C1SC(=C(SC)S1)SC,6.20283522
4946,DIFXAS,C20 H20 N2 O4 S2,CCOC(=O)C(=S)Nc1ccccc1c1ccccc1NC(=S)C(=O)OCC,6.00174308
4948,DIFXEW,C36 H48 N2 O4 S2,CC(C)C1CCC(C)CC1OC(=O)C(=S)Nc1ccccc1c1ccccc1NC(=S)C(=O)OC1CC(C)CCC1C(C)C,5.8594275499999995
4949,DIFXUO,C26 H26 Br2 O2 S2,CC(C)(C)c1ccc(cc1)C1=C(Br)S(=O)(=O)C2=C1SC(=C2c1ccc(cc1)C(C)(C)C)Br,5.68092085
4951,DIFZUQ,C15 H14 Cl2 N2 O2 S1,CCOC(=O)C1=C(C)N=C(C(Cl)Cl)N(C1=S)c1ccccc1,6.23929847
4952,DIGBOK01,C24 H28 N4 O2,C1CN(CCO1)C(=CN=NC=C(N1CCOCC1)c1ccccc1)c1ccccc1,5.47601913
4953,DIGCIF,C40 H32 O8,COC(=O)C(c1ccccc1)=C1C(=C(C(=O)OC)c2ccccc2)C(=C(C(=O)OC)c2ccccc2)C1=C(C(=O)OC)c1ccccc1,5.366629360000001
4954,DIGDIG01,C9 H15 N1 O6,OC(=O)CC[NH+](CCC(O)=O)CCC(=O)[O-],6.405560039999999
4955,DIGFAD,C10 H12 O2,CC(C)(C)C1=CC(=O)C=CC1=O,6.641754859999999
4956,DIGGOS,C30 H18 N1 O1 P1,O=P1(c2ccccc2)C2=CC=C3N2c2c(cccc12)c1c2ccccc2c2ccccc2c31,5.42567806
4957,DIGGUV,C18 H12 N4,Cc1cc2c(cc1C)C(=NC#N)c1ccccc1C2=NC#N,5.72337062
4958,DIGHEG,C19 H20 O8,COC1C2OC(C)(C)OC2(C)C(O)C2=C1C(=O)c1c(O)ccc(O)c1C2=O,5.59357231
4959,DIGKEM,C23 H22 N6,C1CCN(C1)c1ccc(C=Cc2cc(nc(c2)N2C=CC=N2)N2C=CC=N2)cc1,5.49234596
4960,DIGLOW,C36 H34 O2,CCCOc1ccc(cc1)C=Cc1c2ccccc2c(C=Cc2ccc(OCCC)cc2)c2ccccc12,5.39438497
4961,DIGLUC,C36 H34 O2,CCCOc1ccccc1C=Cc1c2ccccc2c(C=Cc2ccccc2OCCC)c2ccccc12,5.348669849999999
4962,DIGMAJ,C36 H34 O2,CCCOc1cccc(C=Cc2c3ccccc3c(C=Cc3cccc(OCCC)c3)c3ccccc23)c1,5.42377327
4963,DIGNAJ,C29 H26 N2 O1 S1,CC(C(Nc1ccccc1)c1ccc(cc1)C#N)c1ccccc1S(=O)c1ccc(C)cc1,5.92718389
4964,DIGNEO,C43 H28 N4 O1 S1,S=C1OC2=NC1=C(C1=CC=C(N1)C(=C1C=CC(=N1)C(=C1NC(=C2c2ccccc2)C=C1)c1ccccc1)c1ccccc1)c1ccccc1,3.88469733
4965,DIGNIR,C28 H27 N1 O2 S1,COc1ccc(NC(Cc2ccccc2S(=O)c2ccc(C)cc2)c2ccccc2)cc1,5.894258120000001
4966,DIGPEO,C34 H28 Br2 N2 O8 S2,CSC12CC3C(C(OC(=O)c4ccc(Br)cc4)C=CC3=O)N1C(=O)C1(CC3C(C(OC(=O)c4ccc(Br)cc4)C=CC3=O)N1C2=O)SC,6.41562826
4967,DIGRAP,C36 H22 N2 O2 S3,O=S1(=O)c2cc(ccc2c2ccc(cc12)N1c2ccccc2Sc2ccccc12)N1c2ccccc2Sc2ccccc12,5.23247723
4968,DIGRUG,C32 H27 N3,CN(c1ccccc1)c1c2cc(C)ccc2nc2N(C=C(c3ccccc3)c12)c1ccc(C)cc1,5.5601023099999995
4969,DIGSOE,C14 H8 N2 O2 S1,O1C=CC=C1C1=CC=C(C2=CC=CO2)C2=NSN=C12,4.806619059999999
4970,DIGVIZ,C13 H14 F3 N5 O1 S1,Cc1ccc(NN=C2C(=NN(C(N)=S)C2(O)C(F)(F)F)C)cc1,5.484182540000001
4971,DIGVOE,C17 H28 N4 O1,CC(C)(C)CC(=O)N1N=C2C=CC(=NN2C1(C)C)C(C)(C)C,5.50731222
4972,DIGVOF,C17 H16 F3 N7 O4,CCOC(=O)C1=C(NN=C1)NN=C1C(=NN(C(=O)c2ccncc2)C1(O)C(F)(F)F)C,5.95112991
4973,DIGVOG,C15 H14 N2,Cc1ccc2N=C(NCc2c1)c1ccccc1,6.0700436700000004
4974,DIGXAV,C11 H10 N4,Nc1ccccc1N=Nc1cccnc1,5.43683473
4975,DIGXUN,C27 H30 N4 O7,COC(=O)C1C(NC(Cc2ccccc2)(C1C(=O)OC)C(=O)OC)C1=C(N=C2C=CC=CN2C1=O)N(C)C,5.99167487
4976,DIGYOH,C25 H28 N2 S2,CC1(C)CC(=S)C(C(=S)C1)=C1N(CCN1Cc1ccccc1)Cc1ccccc1,5.477923919999999
4977,DIGZUR,C46 H38 O2,COc1ccc(cc1)c1cc2c(cc(c3ccccc3)c3cc(c4ccc(OC)cc4)c4cc(cc1c4c23)C(C)(C)C)c1ccccc1,5.2730222
4978,DIHBAA,C46 H34 O2,CC(C)(C)c1cc2c(cc3c(cc(c4ccccc4)c4cc(c5ccc(C=O)cc5)c(c1)c2c34)c1ccccc1)c1ccc(C=O)cc1,5.29615187
4979,DIHCUS,C17 H14 O4,OC(C=Cc1ccccc1)=C1C2CC(=O)OC2C=CC1=O,5.661328660000001
4980,DIHDON,C18 H12,C1=Cc2ccc3C=CC=Cc4ccc(C=C1)c2c34,4.2221185100000005
4981,DIHDOO,C26 H24 N2 O6,CCOC(=O)CN1C(=O)C2=C(N(CC(=O)OCC)C(=O)C2=C1c1ccccc1)c1ccccc1,4.683351480000001
4982,DIHDUU,C24 H20 N2 O2,C=CCN1C(=O)C2=C(N(CC=C)C(=O)C2=C1c1ccccc1)c1ccccc1,4.67246693
4983,DIHFIK,C22 H19 N1 O6,COc1ccc(cc1)N(c1ccc(OC)cc1)c1cc(cc(c1)C(O)=O)C(O)=O,5.739969559999999
4984,DIHFUV,C17 H9 Cl4 N1,Cc1c(CCl)c(Cl)c2nc(Cl)c(Cl)c3c4ccccc4c1c23,5.59411654
4985,DIHKIQ,C29 H16 B1 F10 P1,CC1=CC(=[B-](c2c(F)c(F)c(F)c(F)c2F)c2c(F)c(F)c(F)c(F)c2F)[P+](C1)(c1ccccc1)c1ccccc1,5.84691031
4986,DIHMOX,C30 H24,c1ccc(cc1)C=CC(c1ccccc1)=C(C=Cc1ccccc1)c1ccccc1,5.38050717
4987,DIHNIS,C37 H30 N4,CCC1=C(CC)C2=CC3=NC(=C(c4ccccc4)c4cc(ccn4)C(=C4C=CC(=N4)C=C1N2)c1ccccc1)C=C3,3.7021089399999982
4988,DIHNUE,C18 H10 N2 O3,COc1cccc2C(=O)C3=C(C(=O)[C-]([N+]#N)c4ccccc34)c12,4.735869450000001
4989,DIHPAM,C18 H10 N2 O4,Cc1cc(O)c2c(c1)[C-]([N+]#N)C(=O)C1=C2C(=O)c2cccc(O)c12,4.852606300000001
4990,DIHRAQ,C34 H26 N2,Cc1ccccc1C=C(C#N)c1ccc(cc1)c1ccc(cc1)N(c1ccccc1)c1ccccc1,5.62840288
4991,DIHROC,C22 H15 Br2 O1 P1,Brc1c2cccccc2c(Br)c1P(=O)(c1ccccc1)c1ccccc1,4.58484627
4992,DIHRUI,C22 H16 Br1 O1 P1,Brc1c2cccccc2cc1P(=O)(c1ccccc1)c1ccccc1,4.8504293800000005
4993,DIHSAO,C23 H25 N1 O7,COC1=CC=C2C(=CC1=O)C(CCc1cc(OC)c(OC)c(OC(C)=O)c21)NC(C)=O,5.93806844
4994,DIHTET,C9 H8 N2 O2,CN1N=CC2=C1C(=O)C(=CC2=O)C,6.511140210000001
4995,DIHVIC,C29 H28 N4 O4,CCOC(=O)CN(CC(=O)OCC)c1ccc(cc1)C=CC1=CC(=C(C#N)C#N)c2ccccc2N1C,4.97723444
4996,DIHWID,C26 H16 Br2 N2 O3,NC(=O)C(=C(O)c1ccc(Br)cc1)C1=C(OC(=C1C#N)c1ccc(Br)cc1)c1ccccc1,5.856434289999999
4997,DIHXUQ,C36 H31 N1 O2,CCCCC(CC)CN1C(=O)c2cccc3c(ccc(C1=O)c23)c1ccc2ccc3cccc4ccc1c2c34,5.28581155
4998,DIHZOJ,C21 H24 O7 S1,CC(C)c1cc(OS(C)(=O)=O)c(C)c2OC3=C(C)C(=O)C(=O)C(=C3Oc12)C(C)C,5.603640520000001
4999,DIHZUS,C27 H18 F2 N2,Fc1cc(F)cc(c1)C(=Cc1ccc(cc1)N(c1ccccc1)c1ccccc1)C#N,5.21533406
5000,DIJCIL,C38 H30 N2 O6 S2,COc1ccc(cc1)N1c2cccc(c2)S(=O)(=O)c2cccc(c2)N(c2ccc(OC)cc2)c2cccc(c2)S(=O)(=O)c2cccc1c2,5.73452729
5006,DIJGUB,C23 H23 N3 O3,CCc1ccc(cc1)N=Nc1ccc(O)c(C=Nc2ccc(OC)c(OC)c2)c1,5.618334669999999
5007,DIJHAI,C22 H21 N3 O1,CCc1ccc(cc1)N=Nc1ccc(O)c(C=Nc2ccc(C)cc2)c1,5.7543916
5008,DIJKAL,C25 H26 N2 O2,CN(C)c1ccc(C=CC2=CC(=O)C=C(O2)C=Cc2ccc(cc2)N(C)C)cc1,5.34567659
5009,DIJLIS,C20 H16 N2 O2 S5,N#CCCSC1=C(SC=C1)C1=C2OCCOC2=C(S1)C1=C(SCCC#N)C=CS1,5.36526879
5010,DIJLIT,C30 H17 F5,Cc1cc2c(cc1C)C1=C(c3ccccc3)c3ccccc3C1=C2c1c(F)c(F)c(F)c(F)c1F,4.78403361
5011,DIJLOZ,C28 H13 F5,Fc1c(F)c(F)c(c(F)c1F)C1=C2c3ccccc3C(=C2c2ccccc12)c1ccccc1,4.929342409999999
5012,DIJLUF,C24 H18,Cc1cc2C=C3c4ccccc4C(=C3c2cc1C)c1ccccc1,5.0692089199999995
5013,DIJMAM,C22 H14,c1ccc(cc1)C1=C2c3ccccc3C=C2c2ccccc12,5.15410844
5014,DIJMEQ,C22 H10 F4,Fc1c(F)c(F)c2c(C=C3c4ccccc4C(=C23)c2ccccc2)c1F,5.09696453
5015,DIJPET,C26 H16 N4,C1=CN2c3ccccc3C(=C2C=C1)N1N=Nc2c3ccccc3c3ccccc3c12,5.68228143
5016,DIJTEX,C23 H27 N3 O2,Cc1cc(C)c(N2C(=[NH2+])N(C(=C(C)C2=O)[O-])c2c(C)cc(C)cc2C)c(C)c1,6.33508255
5017,DIJTUN,C28 H35 N3 O2,Cc1cc(C)c(N2C(=O)C(=C([O-])[N+](=C2C=NC(C)(C)C)c2c(C)cc(C)cc2C)C)c(C)c1,5.68064874
5018,DIJVEZ,C31 H33 Cl1 N2 O3,Cc1cc(C)c(N2C(N(C(=O)C(C)(C)C2=O)c2c(C)cc(C)cc2C)C(=O)c2ccc(Cl)cc2)c(C)c1,6.32392588
5019,DIJZUT,C23 H18 N2 O3,CN1C(=O)C2(Nc3ccccc3OC2C(=O)c2ccccc2)c2ccccc12,5.81888258
5020,DIKTEX,C14 H10 Cl1 I1 N2,Clc1ccc(cc1)C=NN=Cc1ccc(I)cc1,5.98187878
5021,DILCAC,C22 H16 N2 S1,CSc1c(CC(c2ccccc2)=C(C#N)C#N)ccc2ccccc12,5.6988803699999995
5022,DILCEI,C14 H10 N4 S6,N#CCCSC1=C(SCCC#N)SC(S1)=C1Sc2nccnc2S1,5.5854089
5023,DILFOT,C15 H11 N3 O4 S1,CN1C2(N3C=CC=CC3=NC2=O)C(=O)c2ccccc2S1(=O)=O,5.943510719999999
5024,DILHUC,C16 H14 N4 O1,COc1cccc(C=NN=C2NN=Cc3ccccc23)c1,5.89697925
5025,DILKUF,C26 H30 N4 O5,COC(=O)C1(Cc2ccccc2)CC(C)(C(N1)C1=C(N=C2C=CC=CN2C1=O)N(C)C)C(=O)OC,5.82486909
5026,DILMEQ,C23 H25 N3 O2,CCCCOC(=O)c1cc(nnc1NCCc1ccccc1)c1ccccc1,5.8806524200000005
5027,DILNAN,C18 H18 F3 N3 O2 S2,COc1cc[n+](c(CSSCCO)c1C)C1=Nc2cc(ccc2[N-]1)C(F)(F)F,5.07084161
5028,DILNUH,C14 H18 S6,CC(C)(C)SC1=C2C(=S)SC(=S)C2=C(S1)SC(C)(C)C,4.88145037
5029,DILSEY,C8 H12 N2 O3,C[NH+](C)CCNC1=C([O-])C(=O)C1=O,4.97560175
5030,DILSIC,C27 H20 N2 O1,CC(=O)N1N=C(CC1c1ccc2ccc3cccc4ccc1c2c34)c1ccccc1,5.70024094
5031,DILSUP,C17 H15 N1 O2,CN(C)c1ccc(cc1)C1=Cc2ccccc2C(=O)O1,5.7701742000000005
5032,DILXII,C14 H13 Br1 N2 O2,CN1N=C(C=C1C)C(=O)C=C(O)c1cccc(Br)c1,6.44093484
5033,DIMMAQ,C32 H20 N2,N#Cc1ccc(cc1)C=Cc1c2ccccc2c(C=Cc2ccc(cc2)C#N)c2ccccc12,4.95410476
5034,DIMRUO,C26 H20 F2 N2 O4,CC1COc2c(F)c(F)ccc2N1C(=O)C(Cc1ccccc1)N1C(=O)c2ccccc2C1=O,5.99113064
5035,DIMTEB,C48 H36 N2,CN(C)c1ccc(cc1)C#Cc1cc(C#Cc2ccc(cc2)N(C)C)c2ccc3c(cc(c4ccccc4)c4ccc1c2c34)c1ccccc1,4.51572934
5036,DIMTIF,C16 H12 Br2,BrC(=CC=C(Br)c1ccccc1)c1ccccc1,5.64853931
5037,DIMVIH,C16 H18 N2 O2,CN(C)C(=CC=C1C(=O)c2ccccc2C1=O)N(C)C,5.25968862
5038,DIMVON,C18 H24 N4 O1,CN(C)C(=O)C(C#N)=C(C=C(N(C)C)N(C)C)c1ccccc1,5.4362905
5039,DIMWAA,C16 H19 N3 O1,CN(C)C(=O)C(=CC=C(N(C)C)c1ccccc1)C#N,5.75411948
5040,DIMWEE,C20 H18 N2 O1,CN(C)C(=CC=C(C#N)C(=O)c1ccccc1)c1ccccc1,5.50785645
5041,DIMWOO,C16 H19 N1 O4,COC(=O)C(=CC=C(N(C)C)c1ccccc1)C(=O)OC,6.02079105
5042,DIMYOQ,C36 H58 Cl2 N1 P3,CC(C)(C)c1cc(c(P=PN(P(Cl)Cl)c2c(cc(cc2C(C)(C)C)C(C)(C)C)C(C)(C)C)c(c1)C(C)(C)C)C(C)(C)C,5.91221762
5043,DINCEI10,C29 H20,c1ccc(cc1)C(=C=C=C=C(c1ccccc1)c1ccccc1)c1ccccc1,5.8784755099999995
5044,DINDOW,C44 H24 F2,Fc1ccc(cc1)C#Cc1cc(C#Cc2ccc(F)cc2)c2ccc3c(cc(c4ccccc4)c4ccc1c2c34)c1ccccc1,4.66185449
5045,DINDUC,C25 H15 F3 N2 S1,FC(F)(F)c1ccc2SC(=Nc2c1)C1(C#N)C2C=CC=CC=C2C=C1c1ccccc1,5.58894637
5046,DINFEN,C29 H23 N3 O2,Cc1cc2cc3cc(C)c(cc3nc2cc1N=Cc1ccccc1O)N=Cc1ccccc1O,5.27547122
5047,DINFOY,C48 H32 N4,c1ccc2N(c3ccc(cc3)c3nc4ccccc4nc3c3ccc(cc3)N3c4ccccc4C=Cc4ccccc34)c3ccccc3C=Cc2c1,5.49261807
5048,DINGAI01,C18 H18 N2,C1CCN2C3=CC=CC=C2C=C2C=CC=CC(=C3)N2C1,4.94213175
5049,DINJOZ10,C23 H21 N3 O2,Cc1ccc(N)c(c1)C(=NN1C(=O)C2C3CC(C=C3)C2C1=O)c1ccccc1,6.11385399
5050,DINLOE,C25 H17 Cl1 N4,Clc1ccccc1Nc1ccnc2nc(c3ccccc3)c(nc12)c1ccccc1,5.793303880000001
5051,DINLUK,C23 H16 N4,c1ccc(cc1)c1nc2nccc(N3C=CC=C3)c2nc1c1ccccc1,5.885278359999999
5052,DINMEV,C25 H16 N4,N1c2ccccc2c2ncc3nc(c4ccccc4)c(nc3c12)c1ccccc1,5.6596959799999995
5053,DINMIZ,C20 H12 I2 N2,Ic1ccc(I)c2nc(c3ccccc3)c(nc12)c1ccccc1,5.83847477
5054,DINMOF,C23 H15 N3 S1,S1C=CC=C1c1ccnc2nc(c3ccccc3)c(nc12)c1ccccc1,5.58214353
5055,DINPAU,C14 H18 N2 O1 S1,CC(=O)c1cccc(NC(=S)N2CCCCC2)c1,6.10405789
5056,DINQAV,C24 H19 N1 O3 S1,Cc1ccc(cc1)S(=O)(=O)N=C1OC(=CC=C1c1ccccc1)c1ccccc1,5.71983314
5057,DINVUU,C40 H34 N2 O2,CCN(CC)c1ccc2C=C(C=Nc3ccc(cc3)C(c3ccccc3)=C(c3ccccc3)c3ccccc3)C(=O)Oc2c1,5.02948029
5058,DIPFOX10,C3 H8 N1 O5 P1,[NH3+]C(CC(O)=O)P(O)(=O)[O-],6.72665438
5059,DIPHOZ10,C23 H24 F1 N3 O2,CC1=C(CCN2CCC(CC2)C(=O)c2ccc(F)cc2)C(=O)N2C=CC=CC2=N1,6.27630596
5060,DIPLOF,C20 H14 O4,CC(=O)C1=C(C=C(OC1=O)c1ccccc1)C(=O)c1ccccc1,5.93534731
5061,DIPQOL,C8 H8 Cl1 N7,CN1N=C(C)C2=NC3=NN=C(CCl)N3N=C12,5.40962335
5062,DIPRIG,C32 H16 S8,S1C(Sc2ccccc12)=C1C(=C2Sc3ccccc3S2)C(=C2Sc3ccccc3S2)C1=C1Sc2ccccc2S1,4.75518954
5063,DIPVOT,C15 H20 O3,CC(CCC=C(C)C)C1=C(O)C(=O)C(=CC1=O)C,5.496427669999999
5064,DIPVUT,C11 H12 Cl1 N3 O2,CNC(=O)C(=NNc1ccc(Cl)cc1)C(C)=O,5.9688173099999995
5065,DIPWIL,C21 H22 O4 S1,COc1ccc(c(OC)c1)C(=C1C(=O)c2ccccc2S1=O)C(C)(C)C,5.8447334
5066,DIPWOR,C21 H22 O4 S1,COc1ccc(c(OC)c1)C(=C1C(=O)c2ccccc2S1=O)C(C)(C)C,5.79874616
5067,DIPWUX,C21 H22 O4 S1,COc1ccc(c(OC)c1)C(=C1C(=O)c2ccccc2S1=O)C(C)(C)C,6.022967960000001
5068,DIPYEG,C20 H19 N1 O5,COc1ccc2c(c1)C(=O)c1c(OC)c(OC)c(OC)c3CCN=C2c13,5.97017788
5069,DIPYOQ,C27 H24 N2 O5,COc1ccc2c(c1)C(=O)c1c(NCCc3ccc(O)cc3)c(OC)c(OC)c3ccnc2c13,5.1630882
5070,DIPZEK,C39 H36 N2 O3 S1,CON1C2(C)CCC1(CCC2=CN(c1ccc2ccc3cccc4ccc1c2c34)S(=O)(=O)c1ccc(C)cc1)c1ccccc1,5.6384711
5071,DIPZUZ,C12 H10 Br1 N1 O2,CN1C(=O)C(=C(CBr)C=O)c2ccccc12,5.44581449
5072,DIQBOX,C12 H6 F4 N2,Fc1cccc(F)c1N=Nc1c(F)cccc1F,6.04555341
5073,DIQDAI,C24 H32 S4,CC(C)c1ccc(C(C)C)c2SSc3c(SSc12)c(ccc3C(C)C)C(C)C,5.943510720000001
5074,DIQGAN,C32 H24 O5,COC(=O)C1(CC2=C3COc4cccc5c6ccccc6C(=C3C(=C2C1)c1ccccc1)c45)C(=O)OC,4.779135559999999
5075,DIQNID,C15 H12 N2 O2,CN1C(=O)C(=Nc2ccccc2O)c2ccccc12,5.84500551
5076,DIQNOJ,C15 H11 Br1 N2 O1,CN1C(=O)C(=Nc2ccccc2)c2cc(Br)ccc12,5.767180949999999
5077,DIQNUP,C17 H16 N2 O1,CN1C(=O)C(=Nc2c(C)cccc2C)c2ccccc12,5.9590212099999995
5078,DIQPAX,C21 H24 N2 O1,CC(C)c1cccc(C(C)C)c1N=C1C(=O)N(C)c2ccccc12,5.89616292
5079,DIQPEB,C16 H14 N2 O1,CN1C(=O)C(=Nc2ccccc2)c2cc(C)ccc12,5.97099423
5080,DIQPIF,C18 H18 N2 O1,CN1C(=O)C(=Nc2c(C)cc(C)cc2C)c2ccccc12,5.773439569999999
5081,DIQSAA,C34 H34 N2 O4,CC1=C2CN(Cc3ccccc3)CC3=C(C)C(=O)C(=C(C)C3=O)CN(Cc3ccccc3)CC(=C(C)C2=O)C1=O,5.19302072
5082,DIQSOO,C28 H38 N2 O6,CCC(CO)N1CC2=C(C)C(=O)C(=C(C)C2=O)CN(CC2=C(C)C(=O)C(=C(C)C2=O)C1)C(CC)CO,5.2496203999999995
5083,DIQSUT,C24 H21 N3 O1,Cc1ccc(cc1)C(Nc1ccccc1)=C1C(=NN(c2ccccc2)C1=O)C,5.68473045
5084,DIQSUU,C30 H42 N2 O6,CC(C)C(CO)N1CC2=C(C)C(=O)C(=C(C)C2=O)CN(CC2=C(C)C(=O)C(=C(C)C2=O)C1)C(CO)C(C)C,4.86757256
5085,DIQTAA,C26 H25 N3 O1,Cc1ccc(cc1)C(Nc1c(C)cccc1C)=C1C(=NN(c2ccccc2)C1=O)C,5.66677094
5086,DIQTAB,C30 H42 N2 O6,CC(C)C(CO)N1CC2=C(C)C(=O)C(=C(C)C2=O)CN(CC2=C(C)C(=O)C(=C(C)C2=O)C1)C(CO)C(C)C,5.09152225
5087,DIQTEE,C30 H33 N3 O1,CC(C)c1cccc(C(C)C)c1NC(c1ccc(C)cc1)=C1C(=NN(c2ccccc2)C1=O)C,6.065961949999999
5088,DIQWEI,C15 H13 N5 O5 S1,CN1C(=O)N(C)C2=C(N(C)C(=N2)N2C(=O)c3ccccc3S2(=O)=O)C1=O,5.8180662299999995
5089,DIQXEJ,C23 H32 Br2 N4,CCCCCCCC1(CCCCCCC)Nc2c(Br)c(C#N)c(C#N)c(Br)c2N1,5.9299050300000005
5090,DIQXIN,C25 H36 Br2 N4,CCCCCCCC1(CCCCCCC)N(C)c2c(Br)c(C#N)c(C#N)c(Br)c2N1C,5.793031759999998
5091,DIQXOT,C37 H44 Cl2 N4,CCCCCCCC1(CCCCCCC)N(C)c2c(N1C)c(c1ccc(Cl)cc1)c(C#N)c(C#N)c2c1ccc(Cl)cc1,5.88691104
5092,DIRFUH,C28 H24 N2 O4,Oc1cc(OCc2ccccc2)ccc1C=NN=Cc1ccc(OCc2ccccc2)cc1O,5.95439527
5094,DIRHAP,C16 H14 N6 O1,CN1C=Nc2c(nc(Nc3cccc(CC(N)=O)c3)nc12)C#C,5.98977008
5095,DIRQAW,C10 H8 Br1 N3 O1,CC(=O)C(=NNc1ccccc1Br)C#N,5.93208194
5096,DIRQEA,C11 H11 N3 O1,CC(=O)C(=NNc1ccccc1C)C#N,5.797929809999999
5097,DIRQIE,C12 H14 N2 O4,COC(=O)C(=NNc1ccccc1OC)C(C)=O,5.90595901
5099,DIRXIN,C21 H19 N3 O2,COc1ccc(cc1)N=Cc1cccc(C=Nc2ccc(OC)cc2)n1,6.057798539999999
5100,DIRYAG,C17 H14 O4 S1,Cc1ccc(cc1)S(=O)C1=C(O)c2cc(C)ccc2OC1=O,6.25861856
5101,DISCUE,C34 H40 N2 O3,COc1cc(ccc1N(c1ccc(cc1OC)C(C)(C)C)c1ccc(cc1OC)C(C)(C)C)c1ccncc1,5.88936007
5102,DISFER,C38 H24 N2 S2,C1CC2C=CC1C1=C3SC(=C21)C=C1N=C(C=C2SC(=CC4=NC(=C3)c3ccccc43)c3ccccc23)c2ccccc12,3.93286148
5103,DISFIV01,C42 H34 N4,C1CC2C=CC1C1=C2C2=CC3=NC(=CC4=C5C6CCC(C=C6)C5=C(N4)C=C4N=C(C=C1N2)c1ccccc41)C1=C3C2CCC1C=C2,4.239533789999999
5104,DISFUH,C38 H25 N3 S1,C1CC2C=CC1C1=C3SC(=C21)C=C1N=C(C=C2NC(=CC4=NC(=C3)c3ccccc43)c3ccccc23)c2ccccc12,3.96442669
5105,DISGAO,C38 H26 N4,C1CC2C=CC1C1=C3NC(=C21)C=C1N=C(C=C2NC(=CC4=NC(=C3)c3ccccc43)c3ccccc23)c2ccccc12,4.02129849
5106,DISGES,C13 H14 N8,CN(C)c1nc(N)nc(N(C)C)c1C(C#N)=C(C#N)C#N,5.231660890000001
5107,DISKAS,C30 H19 P1 S2,S1C=CC2=C1C1=C(C=CS1)C1=C(P(c3ccccc3)C(=C21)c1ccccc1)c1ccccc1,4.917641509999999
5108,DISKOG,C23 H25 N3 O3,CCOC(=O)C=C([O-])C1=[N+](N=C(N1c1ccccc1)c1ccccc1)C(C)(C)C,5.68609103
5109,DISLEX,C21 H20 N4 O1,CC(C)C1=NN2C=CC=CC2=C1C1=NN(Cc2ccccc2)C(=O)C=C1,5.90895226
5110,DISLOJ,C19 H16 N2 O4,COc1ccc(NC(=O)C2=C(O)c3cccc4CCN(C2=O)c34)cc1,5.41207238
5111,DISPAZ,C21 H18 N4 O2,CN1N(c2ccccc2)C(=O)C(=C1C)N=Nc1c(O)ccc2ccccc12,5.26322609
5112,DISQIG01,C30 H12 F10 O4,Fc1c(F)c(F)c(C(=O)OCc2c3ccccc3c(COC(=O)c3c(F)c(F)c(F)c(F)c3F)c3ccccc23)c(F)c1F,5.28798846
5113,DISQOM,C30 H22 O4,O=C(OCc1c2ccccc2c(COC(=O)c2ccccc2)c2ccccc12)c1ccccc1,5.424317500000001
5114,DISRAB,C24 H11 N5,N#Cc1ccccc1C1=NC2=C3C(=CC=CC3=C3N2C(=N1)c1ccccc31)C#N,4.77967978
5115,DISREF,C22 H13 N3,c1ccc(cc1)C1=NC2=C3C=CC=CC3=C3N2C(=N1)c1ccccc31,4.64933725
5117,DISXEL,C16 H20 Cl1 N1 O1,CC(C)(C)C1CC=C(Nc2ccc(Cl)cc2)C(=O)C1,6.18215457
5118,DISXIP,C34 H51 N1 O2,COc1ccc(NC2=CC3CCC4C5CCC(C(C)CCCC(C)C)C5(C)CCC4C3(C)CC2=O)cc1,5.84337282
5119,DISXOV,C28 H37 N1 O3,COc1ccc(NC2=CC3CCC4C5CCC(C(C)=O)C5(C)CCC4C3(C)CC2=O)cc1,5.8904485200000005
5120,DISXUA,C20 H19 F1 N2 O3,CCN(CC)c1ccc2C=C(C(=O)Nc3ccc(F)cc3)C(=O)Oc2c1,5.46703937
5121,DISYAH,C22 H22 N2 O5,CCN(CC)c1ccc2C=C(C(=O)Nc3ccc(cc3)C(=O)OC)C(=O)Oc2c1,5.58731369
5122,DISYAI,C16 H15 N1 O2,CC(C)(C)c1ccc2N=C3C=CC(=O)C=C3Oc2c1,5.10920965
5123,DISYEL,C21 H19 N3 O3,CCN(CC)c1ccc2C=C(C(=O)Nc3ccc(cc3)C#N)C(=O)Oc2c1,5.598198239999999
5124,DISYIQ,C19 H15 I1 N4,Ic1ccc(cc1)C(=NNc1ccccc1)N=Nc1ccccc1,4.562805040000001
5125,DISZAG,C26 H20 O6,CC(=O)Oc1ccc(c(OC(C)=O)c1)c1c2ccccc2c(OC(C)=O)c2ccccc12,5.411800260000001
5126,DISZIR,C20 H17 I1 N4,Ic1ccc(cc1)C1=NN(CN(N1)c1ccccc1)c1ccccc1,5.9897700799999996
5127,DITBEN03,C30 H18,c1ccc2c(c1)cc1ccccc1c2C#Cc1c2ccccc2cc2ccccc12,4.8800898
5128,DITGAQ01,C15 H16 N4 O5 S1,CC(O)=C(N=Nc1ccc(cc1)S(=O)(=O)NC1=NOC(=C1)C)C(C)=O,5.4605086400000005
5129,DITHEV,C54 H36 N6,c1ccc(cc1)N(c1ccccc1)c1ccc(cc1)c1ccc(c2ccc(cc2)N(c2ccccc2)c2ccccc2)c2nc3c4cccnc4c4ncccc4c3nc12,4.61777204
5130,DITLAT,C7 H15 N1 O3,C[N+](C)(C)CC(O)CC(=O)[O-],5.10104624
5131,DITLEZ,C26 H4 Br4 F10 N4,FC(F)(F)C(F)(F)c1nc2c(Br)cc3c4cc(Br)c5nc(nc6c(Br)cc(c7cc(Br)c(n1)c2c37)c4c56)C(F)(F)C(F)(F)F,4.214227210000001
5132,DITMAW,C8 H10 N2 O3 S1,OCCNC(=S)NC(=O)C1=CC=CO1,6.27875498
5133,DITPAX,C32 H26 O1,CC(OC(C)c1c2ccccc2cc2ccccc12)c1c2ccccc2cc2ccccc12,5.42894343
5134,DITSEH,C20 H22 N2 O2,COC12CCC3N(CCC4=C3Nc3ccccc43)C1CC(=O)C=C2,6.01208342
5135,DITWOS,C33 H24 O1,O=C1CCC23C1C(C(c1ccccc21)c1ccccc31)c1c2ccccc2cc2ccccc12,5.41288871
5136,DIVBEP,C28 H32 N4 O3,CCC1=C(C)C(=O)NC1=CC1=C(C)C(=C(N1)C=C1N=C(C=C2NC(=O)C(C)(C)C2=O)C(=C1C)C)C,3.85394847
5137,DIVBOC,C23 H28 N2 O4,COc1ccc(NC2COC3(C)CCC(=O)C2C3Nc2ccc(OC)cc2)cc1,6.51984786
5138,DIVFAQ,C28 H19 N1 O3,O=C1Oc2ccccc2C21CC1COC(=C1C=C2c1ccccc1)c1ccc(cc1)C#N,5.5100333599999995
5139,DIVFIY,C28 H22 O4,COc1ccc(cc1)C1=C2C=C(c3ccccc3)C3(CC2CO1)C(=O)Oc1ccccc31,5.82813445
5140,DIVFOE,C30 H26 O4,COc1ccc(cc1)C1=C2C=C(c3ccccc3)C3(C(=O)Oc4ccccc34)C(C)(C)C2CO1,5.89480234
5141,DIVGAR,C29 H25 N1 O3,CN(C)c1ccc(cc1)C1=C2C=C(c3ccccc3)C3(CC2CO1)C(=O)Oc1ccccc31,5.79221542
5142,DIVGEV,C34 H29 N1 O4 S2,Cc1ccc(cc1)S(=O)(=O)N1C(=O)C2(C(=CC3=C(OCC3C2(C)C)C2=CC=CS2)c2ccccc2)c2ccccc12,5.5315303600000005