,ID,formula,smiles,HOMO_LUMO_gap
3056,CAZBEN,C42 H28,c1ccc2c3ccc(cc3)c3ccc(cc3)c3ccc(cc3)c3ccc(cc3)c3ccc(cc3)c3ccc(cc3)c2c1,5.06567144
3057,CAZFAM,C26 H30 N4,Cc1cc(C)c(N=C(C)c2cnc(cn2)C(C)=Nc2c(C)cc(C)cc2C)c(C)c1,5.776432809999999
3058,CAZHIX,C34 H18,Cc1c(C)c2cc3c4ccccc4c4cc5cc6c7ccccc7c7cc1c1c2c(c5c1c67)c34,5.1200942099999995
3059,CAZHOD,C41 H27 N1 O2,CCCCCCCN1C(=O)c2c3cc4c5ccccc5c5cc6cc7c8ccccc8c8cc(c2C1=O)c1c3c(c6c1c78)c45,5.13397202
3060,CAZKEW,C26 H14 F6,FC(F)(F)C1=C2C3C(C=C2c2ccccc12)C1C=C2c4ccccc4C(=C2C31)C(F)(F)F,5.89344177
3061,CAZKOG,C36 H14 F10,Fc1c(F)c(F)c(c(F)c1F)C1=C2C3C(C=C2c2ccccc12)C1C=C2c4ccccc4C(=C2C31)c1c(F)c(F)c(F)c(F)c1F,5.667859389999999
3062,CAZMIC,C23 H17 N3 O5,CN1C(=O)N(C)C2=C(C1=O)C(=C(N2)c1ccccc1)C1=C(O)c2ccccc2OC1=O,5.98977008
3063,CAZSED,C28 H27 N2 O4 P1,Cc1ccc(cc1)C(=C1Oc2ccc(cc2C=C1)N=Nc1ccccc1)P1(=O)OCC(C)(C)CO1,5.53479572
3064,CAZTAB,C38 H20,c1ccc(cc1)c1ccc2c3cc4ccc5c(ccc6c7cc8ccc1c2c8c3c7c4c56)c1ccccc1,5.04825615
3065,CAZVIJ,C24 H14 O2,O=C1C2c3cc4ccccc4cc3C(C1=O)c1cc3ccccc3cc21,6.24637344
3066,CAZZUZ,C37 H30 O1,Cc1ccc(cc1)c1c(C)cc2C3C(=C(c4ccccc4)C(=O)C3(C)c3cc(C)cc1c23)c1ccccc1,5.85779486
3067,CBAPTZ,C28 H18 Cl2 N4 O2,Clc1ccc(cc1)C(=O)N(N1N=NC(=C1c1ccccc1)c1ccccc1)C(=O)c1ccc(Cl)cc1,6.05072358
3068,CBOXAA,C8 H6 Cl1 N1 O3,CC(=O)ON=C1C=CC(=O)C(=C1)Cl,5.9089522599999995
3069,CBOXAZ10,C10 H5 Br1 N2 O1,BrC1=CN=C(Oc2ccccc12)C#N,6.08718684
3070,CBPAZO,C16 H9 Cl1 N2 O1,Clc1cccc2ccc3[n+]([O-])c4ccccc4nc3c12,5.17614966
3071,CBPYHP,C17 H13 Cl2 N1,Clc1cccc(Cl)c1CN1C=CC(C=C1)=C1C=CC=C1,5.11846153
3072,CBTHZA,C12 H10 N2 O2 S2,CSC1=C(C(N)=O)C(=O)SC(=N1)c1ccccc1,5.724186960000001
3073,CBYOAN10,C22 H26 N2 O1,CCCCCCCCOc1ccc(cc1)N=Cc1ccc(cc1)C#N,5.80119518
3074,CBZANT20,C19 H13 Cl1,ClCc1c2ccccc2cc2c1ccc1ccccc21,5.64826719
3075,CCOLED,C20 H26 O6,CC(CO)c1c(O)c(O)c2c(c1O)C(=O)C(=O)C1C(C)(C)CCCC21C,6.436308899999999
3076,CEBBUH,C28 H26 N2,Cc1ccc(NC(=C(Nc2ccc(C)cc2)c2ccccc2)c2ccccc2)cc1,5.87466592
3077,CEBJAX,C14 H11 N5,N1N=Cc2ccccc2C1=NN=Cc1ccccn1,5.88663893
3078,CEBJIF,C48 H38 N8 O2,CC1=NN(c2ccccc2)C(=O)C21C(c1ccccc1)C(=NN2c1ccccc1)C1=NN(c2ccccc2)C2(C1c1ccccc1)C(=NN(c1ccccc1)C2=O)C,6.03739
3079,CEBJOL,C40 H28,Cc1ccc(c2ccccc12)c1c2ccccc2cc2c1cc1ccccc1c2c1ccc(C)c2ccccc12,4.42511544
3080,CEBLEC,C20 H18 N2 O1 S1,O=C(c1ccccc1)C1=C(SC(=N1)N1CCCC1)c1ccccc1,6.046913989999999
3081,CEBMED,C11 H4 Br2 N2 O1,Brc1cnc2c(c1)C(=O)c1cc(Br)cnc21,5.8909927500000006
3082,CEBNAZ,C9 H6 Cl1 N1 S3,NC1=C(C(=S)SS1)c1ccc(Cl)cc1,5.921197380000001
3083,CEBPAC,C34 H38,CC(C)C1=CC=C(C)C2=C(C=CC=CC3=C4C(=CC=C(C=C4C(=C3)C)C(C)C)C)C=C(C)C2=C1,4.073272230000001
3084,CEBQIL,C20 H17 N1 O1,Cc1ccc(Nc2cccc(c2)C(=O)c2ccccc2)cc1,5.92636755
3085,CEBROR,C36 H44 N10 O4,CCCN1c2nnc3N(C)C(=O)N(C)C(=O)c3c2C2=C1C(CCCC2)C1CCCCC2=C1N(CCC)c1nnc3N(C)C(=O)N(C)C(=O)c3c21,5.57044264
3086,CEBRUX,C26 H26 N2,N#CC(C#N)=C1C2=C(C=CC3=C1C=CC13CCCCC1)C1(CCCCC1)C=C2,5.10540007
3087,CEBSOS,C14 H7 I1 S2,IC1=Cc2ccc3SC=Cc4ccc(S1)c2c34,4.99845932
3088,CEBVUD,C14 H12 I1 N1 O1 S1,CNC(=O)C1=C(SC=C1)C=C(I)c1ccccc1,5.93643576
3089,CEBWAJ,C16 H13 N1 O2,COc1cccc(C=C2NC(=O)c3ccccc23)c1,5.9007888500000005
3090,CEBWIR,C16 H11 N1 O3,O=C1NC(=Cc2ccc3OCOc3c2)c2ccccc12,5.62949134
3091,CEBWOX,C17 H15 N1 O3,COc1ccc2C(NC(=O)c2c1OC)=Cc1ccccc1,5.78377989
3093,CEBYEQ01,C25 H18 N2 O2,Oc1ccc2ccccc2c1C=NN=C(c1ccccc1)C(=O)c1ccccc1,5.68092086
3094,CECFIC,C38 H26 N4 O4,O=C1C2=CNc3ccccc3N=CC(=CNc3ccccc3N=C2)C(=O)c2ccccc2OCC#CC#CCOc2ccccc12,5.04607924
3095,CECGOI,C12 H13 N3 O1 S1,CN1C(=O)C(=Nc2ccc(C)cc2)N(C)C1=S,5.62758655
3096,CECGUO,C9 H12 N2 O3 S1,CCOC(=O)C=C1N(C)C(=S)N(C)C1=O,5.90432633
3097,CECKOM,C10 H10 N1 O2 P1,CN1c2ccc(C)cc2P=C1C(O)=O,5.87276112
3098,CECLUT,C26 H22 N4,CC(C)C1CC(=C(C#N)c2nc(N)c(C#N)c(c3ccccc3)c12)c1ccccc1,5.85833909
3099,CECNUV,C33 H28 N4 O1 S2,CN1CC(=CC2=CC=CS2)C(=O)C2(C1)C(CN(C)C12c2ccccc2c2nc3ccccc3nc12)C1=CC=CS1,5.75330314
3100,CECPAD,C24 H6 N4,N#CC(C#N)=C1C#CC=CC#CC(C#Cc2ccccc2C#C1)=C(C#N)C#N,4.62375855
3101,CECTEL,C14 H14 Br1 Cl2 N1 O5,COC(=O)C1=C(C(=O)OC)C(CCl)(CCl)OC2N1C=CC=C2Br,6.00772959
3102,CECTIN,C20 H22 O4,COc1cc2CCCC3=CC(=O)C(=CC3=O)CCCc1cc2OC,4.9312472
3103,CEDBUI,C22 H26 O4,COc1cc2CCCCC3=CC(=O)C(=CC3=O)CCCCc1cc2OC,4.58402993
3104,CEDFEZ,C33 H27 N1,CCCCN1c2ccc3ccc4ccccc4c3c2c2c1ccc1ccc3ccc(C)cc3c21,5.68010451
3105,CEDGEA,C13 H6 I2 O2,Ic1cccc2Oc3cccc(I)c3C(=O)c12,6.29480971
3106,CEDKEB,C30 H23 Br1 N2 O4 S1,Brc1ccc(COC(=O)C2=C3C=C(C3SC3C(NC(=O)Cc4ccccc4)C(=O)N23)c2ccccc2)cc1,5.77915396
3107,CEDKUU,C18 H18 N2 O2 S2,CCOC1=C(SC(=N1)C1=CC=C(S1)C=O)c1ccc(cc1)N(C)C,4.61613936
3108,CEDPAE,C8 H8 Br1 N3 O1 S1,NC(=S)NN=Cc1cc(Br)ccc1O,5.70323419
3109,CEDPOS,C29 H23 N1 O2,CN1CC(C(C(=O)c2ccccc2)C21C(=O)c1cccc3cccc2c13)c1ccccc1,5.926367549999998
3110,CEDQUZ,C23 H17 N3,CC1=NN(c2ccccc2)c2nc3ccccc3c(c3ccccc3)c12,5.543231250000001
3111,CEDRIA,C28 H31 I1 O6,CC1(C)C(=O)C=CC2(C)C3CCC4(C)C(CC5OC45C3(C)C(=O)C(=C12)OC(=O)CI)C1=COC=C1,6.0610639100000006
3112,CEDSOV,C18 H10 Cl2 O4,OC1=C(C(=O)Oc2ccccc12)C(=O)C=Cc1ccc(Cl)cc1Cl,5.494522869999999
3113,CEDSUB,C8 H4 Cl1 N1 O2,Clc1ccc2NC(=O)C(=O)c2c1,5.972354789999999
3114,CEDTIQ,C15 H16 N2 O5 S1,CCOC(=O)C1=C(N)SC(=C1C(=O)OCC)N=CC1=CC=CO1,5.4713932000000005
3115,CEDWEQ,C22 H17 N1 O1,COc1ccc(cc1)C(C#N)=C(c1ccccc1)c1ccccc1,5.94106169
3116,CEDXOB,C36 H34 F2 N2 S3,CCCCCc1ccc(c(F)c1)C1=CC=C(S1)C1=CC=C(C2=CC=C(S2)c2ccc(CCCCC)cc2F)C2=NSN=C12,4.426203899999999
3117,CEDYEQ,C14 H11 N1 O2 S1,SCCN1C(=O)c2cccc3cccc(C1=O)c23,5.85915543
3118,CEFBEV,C34 H19 Br2 N1,Brc1cc2ccc3N(c4ccccc4)c4ccc5cc(Br)c6ccccc6c5c4c3c2c2ccccc12,5.55139467
3119,CEFBIB,C18 H20 N2 O3 S2,COc1cc(OC)c(C=NNC(=S)SCc2ccccc2)cc1OC,5.84772665
3120,CEFDEZ,C17 H10 O1 S2,O=CC1=CC=C(S1)c1cccc2c1Sc1ccccc21,5.8860947
3121,CEFFOJ,C12 H6 Br2 O6 S3,BrC1=CC=C(C2=CC=C(C3=CC=C(Br)S3(=O)=O)S2(=O)=O)S1(=O)=O,4.75410108
3122,CEFJON,C24 H24 O4,Cc1cc(C)c2OC3(Oc2c1)C1Oc2c(C)cc(C)cc2C1(C)C=C(C)C3=O,6.29562605
3123,CEFKED10,C28 H24 N2 P2,C(P1C(=Nc2ccccc2)P(Cc2ccccc2)C1=Nc1ccccc1)c1ccccc1,5.72418696
3124,CEFQAH,C30 H27 F2 N3 O2,CN1CC(=Cc2ccc(F)cc2)C(=O)C2(C1)C(CN(C)C12C(=O)Nc2ccccc12)c1ccc(F)cc1,6.456717449999999
3125,CEFQIP,C16 H12 O4,COc1ccc2C(=O)c3cc(OC)ccc3C(=O)c2c1,5.908135919999999
3126,CEFRUC,C44 H30 N4 O2,CCOc1ccc2cc(ccc2c1c1c(OCC)ccc2cc(ccc12)c1ccc(cc1)C=C(C#N)C#N)c1ccc(cc1)C=C(C#N)C#N,4.90675695
3127,CEFVAM,C9 H15 N1 O7,OCC1[NH+](CCC(O)=O)C(C(O)C1O)C(=O)[O-],6.70923909
3128,CEFVIU,C11 H11 F1 N4 O1 S1,CCNC(=S)NN=C1C(=O)Nc2ccc(F)cc12,5.2417291
3129,CEFVUG,C14 H9 N1 O2,ON=C1C(=O)c2ccccc2c2ccccc12,5.7742559
3130,CEFWOZ,C21 H26 O4,COc1cc2c(OC3(O)C2=CC(=O)C=C3C(C)(C)C)c(c1)C(C)(C)C,5.69833614
3131,CEFXAO,C19 H17 N1 O2,O=C1c2ccccc2C(=O)c2c(cccc12)N1CCCCC1,5.274927
3132,CEFXOB,C8 H2 F6 S4,FC(F)(F)C1=CSC(S1)=C1SC=C(S1)C(F)(F)F,5.9116734
3133,CEFXOC,C16 H12 N2 O1 S2,O=C(NC(=S)Nc1cccc2ccccc12)C1=CC=CS1,5.4599644099999995
3134,CEFXUH,C16 H4 F12 S8,FC(F)(F)C1=CSC(S1)=C1SC2C(S1)(C1SC(SC21C(F)(F)F)=C1SC=C(S1)C(F)(F)F)C(F)(F)F,5.92174162
3135,CEFYAO,C9 H5 F3 S6,FC(F)(F)C1=CSC(S1)=C1SC2=C(SCCS2)S1,6.122289520000001
3136,CEFYES,C10 H4 F6 S6,FC(F)(F)C1=C(SC(S1)=C1SC2=C(SCCS2)S1)C(F)(F)F,5.46486246
3137,CEGBEX,C37 H30 Cl4 N2 O2,CN1CC(=Cc2ccc(Cl)cc2Cl)C(=O)C2(C1)C(C1CCCCN1C12C(=O)c2cccc3cccc1c23)c1ccc(Cl)cc1Cl,5.86623039
3138,CEGBIB,C27 H20 Br1 N1 O3,CN1CC(c2cccc(Br)c2)C2(Cc3ccccc3C2=O)C21C(=O)c1ccccc1C2=O,6.00337577
3139,CEGCAS,C28 H14,c1cc2ccc3ccc4ccc5ccc6ccc7ccc1c1c2c3c4c5c6c71,5.41343294
3140,CEGCAU,C29 H40 O3,CCCCCCCCCCCCCCOc1ccc(C=CC(=O)c2cccc(O)c2)cc1,5.991674870000001
3141,CEGCIC,C38 H31 Cl1 N2 O4,COc1ccc(cc1)N1C(C2ON(C(C2C(=O)c2ccc(Cl)cc2)c2ccccc2)c2ccccc2)C(C1=O)c1ccccc1,6.1386163499999995
3142,CEGDOJ,C16 H15 I1 O4 S1,COc1cc(C=CC(=O)C2=CC=C(I)S2)cc(OC)c1OC,5.81153551
3143,CEGHED,C21 H28 N2 O1,CC(C)(C)c1cc(C=Nc2ccccc2N)c(O)c(c1)C(C)(C)C,5.65126045
3144,CEGHIH,C33 H48 N4 O1,CC(C)(C)CC(C)(C)c1cc(CN(C2CCCCC2)C2CCCCC2)c(O)c(c1)N1N=C2C=CC=CC2=N1,6.1081396
3145,CEGLOR,C13 H10 N4,c1ccc2c(c1)cccc2C=NN1C=NN=C1,5.6994245999999995
3146,CEGNEJ,C37 H34 N2 O2,CN1CC(=Cc2ccccc2)C(=O)C2(C1)C(C1CCCCN1C12C(=O)c2cccc3cccc1c23)c1ccccc1,5.9797018600000005
3147,CEGNIL,C22 H21 Br1 N4 O6,COC12C(COC(N)=O)C3=C(N1CC1C2N1C(=O)c1ccc(Br)cc1)C(=O)C(=C(N)C3=O)C,5.18458519
3148,CEGPAH,C18 H20 N2 O4,CCOc1cc(ccc1O)C=NN=Cc1ccc(O)c(OCC)c1,5.953851050000001
3149,CEGPEL,C22 H22 N4 O2,CCN(CC)c1ccc(C=CC2=C(C#N)C(OC2(C)C)=C(C#N)C#N)c(O)c1,4.26783363
3150,CEGPIN,C22 H18 O11,COC1=CC(=O)C2=C(C(=C3CC4(O)C(O)C(=O)C(=C(C)O)C(=O)C4(O)C(=O)C3=C2O)C)C1=O,5.9002446200000005
3151,CEGRIS,C17 H14 F3 N1 O5,CCOC(=O)C1(N=C(C(=O)C=C1C(=O)OC)c1ccccc1)C(F)(F)F,6.19494392
3152,CEGROY,C23 H20 O6,COC(=O)C(CC(c1ccccc1)C1=CC(=O)c2ccccc2C1=O)C(=O)OC,6.064329269999999
3153,CEGSAL,C23 H18 O6,COC(=O)C1(CC(c2ccccc2)C2=C1C(=O)c1ccccc1C2=O)C(=O)OC,5.94595975
3154,CEGVIV,C17 H12 I1 N1 O1,Oc1ccc2ccccc2c1C=Nc1cccc(I)c1,5.69452655
3155,CEGXAP,C25 H23 N3 O1,Cc1ccc(NC(c2ccc(C)cc2)=C2C(=NN(c3ccccc3)C2=O)C)cc1,5.8188825799999995
3156,CEGXIX,C25 H17 N1 O4,COc1ccc(cc1)C(=O)C1=C2C=C(C)C=CN2C2=C1C(=O)c1ccccc1C2=O,5.13233934
3157,CEHBIC,C11 H13 N3 S1,CNC(=S)NN=CC=Cc1ccccc1,5.50050938
3158,CEHBOI,C16 H13 Br1 F1 N3 O2 S1,CN1c2ccc(Br)cc2C(CS1(=O)=O)=NN=Cc1ccc(F)cc1,5.987048929999999
3159,CEHDEA,C19 H19 Cl1 O5,COc1ccc(C=CC(=O)c2cc(OC)c(OC)cc2C)c(Cl)c1O,5.87793129
3160,CEHFEC,C17 H16 N2 O3,OC(=O)c1ccc(cc1)N=Nc1ccc(OCCC=C)cc1,5.66867573
3161,CEHMAF,C21 H17 N3 O4,COC(=O)c1ccccc1N=NC1=CC(=CNc2ccccc2O)C(=O)C=C1,4.867572550000001
3163,CEHMUY02,C13 H5 N3 S2,N#CC(C#N)=C(C#N)C1=CC=C(S1)C1=CC=CS1,4.77695865
3164,CEHNAF,C17 H7 N3 S3,N#CC(C#N)=C(C#N)C1=CC=C(S1)C1=CC=C(S1)C1=CC=CS1,4.21368298
3167,CEHVIU,C22 H26 N2 O4,COC(=O)C1(CO)C2CC(=O)C34N(C)c5ccccc5C13CCN4CC2=CC,6.42215898
3168,CEHYOG,C60 H40,c1cc2ccc1c1ccc(cc1)c1ccc(cc1)c1ccc(cc1)c1ccc(cc1)c1ccc(cc1)c1ccc(cc1)c1ccc(cc1)c1ccc(cc1)c1ccc2cc1,5.1728843
3169,CEJJIL,C22 H19 N3 O1,COc1ccc(cc1)c1cc(c2CCN(C)c2n1)c1ccc(cc1)C#N,5.64064801
3170,CEJJOR,C19 H18 N4 O1,COc1ccc(cc1)c1cc(c2CCN(C)c2n1)c1ncccn1,5.42540595
3171,CEJPOW,C15 H17 N1 O1,CCC1=C(CC)C(NC1=O)=Cc1ccccc1,5.87167267
3172,CEJPUC,C12 H12 N2 O1,CC1=C(C)C(NC1=O)=Cc1ccccn1,5.82786234
3173,CEJQUD,C27 H24 N6 O1,CC1=C(NN=C1c1ccccc1)NC1(C)C(=O)N(N=Cc2ccccc2)N=C1c1ccccc1,5.16444877
3174,CEJTAP,C25 H19 N1 O3,Oc1cccc(C=[NH+]c2ccc(Oc3ccc(cc3)c3ccccc3)cc2)c1[O-],5.00553428
3175,CEJTEQ,C11 H15 N3 O2 S1,CN(C)c1ccc(NC(=O)NC(=O)CS)cc1,6.33889215
3176,CEJTET,C23 H17 N1 O3,Oc1cccc(C=[NH+]c2ccc(Oc3ccc4ccccc4c3)cc2)c1[O-],4.9783229
3177,CEJVOF,C19 H15 N1 O3,Oc1cccc(C=[NH+]c2ccc(Oc3ccccc3)cc2)c1[O-],4.99682664
3178,CEJVUL,C23 H17 N1 O3,Oc1cccc(C=[NH+]c2ccc(Oc3cccc4ccccc34)cc2)c1[O-],5.00743908
3179,CEJWUL,C32 H38 N2,CCCCCCN1c2cc3ccccc3cc2N(CCCCCC)c2cc3ccccc3cc12,5.50948914
3180,CEJZIA,C27 H20 N2 O2 S2,O=S(=O)(c1ccccc1)C(=Cc1cccnc1)C1=C(Sc2ccccc2)c2ccccc2N1,5.61071548
3181,CEJZOG,C8 H4 O2 S2,O=C1C=CC(=O)C1=C1SC=CS1,5.81180762
3182,CEJZOJ,C24 H25 Br2 N3 O1,CC(C)N(N=NC1=C(C2C3OC(C12)c1cc(Br)c(Br)cc31)c1ccccc1)C(C)C,5.60200784
3183,CEKCAX,C34 H24 N2 O4 S6,C1COC2=C3SC(=C2O1)C1=C(SCc2ccc(cc2)N=Nc2ccc(CSC4=C(SC=C4)C4=C5OCCOC5=C3S4)cc2)C=CS1,4.74593767
3184,CEKCEB,C32 H24 N2 O2 S6,COC1=C2SC(=C1)C1=C(SCc3ccc(cc3)N=Nc3ccc(CSC4=C(SC=C4)C4=CC(=C2S4)OC)cc3)C=CS1,4.50157943
3185,CEKDON,C27 H22 N2 O4,CC1=C(C(c2ccc(C)cc2)C2=C(O)c3ccccc3OC2=O)C(=O)N(N1)c1ccccc1,5.97562016
3186,CEKGAB,C21 H17 N3 S1,S=C(NCc1ccccn1)Nc1c2ccccc2cc2ccccc12,5.21723886
3187,CEKHEF,C7 H7 N1 O2 S1,CN1C=CC=C(C(O)=O)C1=S,4.93478468
3188,CEKLIQ,C24 H19 N3 O2 S1,Cc1ccc(cc1)S(=O)C1=C(OC(=C(C#N)C1c1ccccc1)N)c1ccccn1,6.12256164
3189,CEKLOW,C25 H21 N3 O2 S1,Cc1ccc(cc1)C1C(=C(N)OC(=C1S(=O)c1ccc(C)cc1)c1ccccn1)C#N,6.076846509999999
3190,CEKLUC,C24 H18 F1 N3 O2 S1,Cc1ccc(cc1)S(=O)C1=C(OC(=C(C#N)C1c1ccc(F)cc1)N)c1ccccn1,6.160929690000001
3193,CEKPOX,C20 H20 N2 O2,CCN(CC)C1=C2C=CC=CC2=C2N1c1cc(OC)ccc1C2=O,4.97097582
3194,CEKROZ,C15 H17 N3,[NH3+]C(=Nc1ccccc1C)[N-]c1ccccc1C,5.79412022
3195,CEKTIV,C30 H27 Cl1 N4,Clc1ccc2N(c3ccccc3)C3=CC(=NC4CCCCC4)C(=CC3=Nc2c1)Nc1ccccc1,4.6542353
3196,CEKZAT,C24 H26 N2 O2,Cc1ccc(cc1)N=NC1(C2CCC(C)(C1=O)C2(C)C)C(=O)c1ccccc1,6.6463808
3197,CELBEA04,C14 H17 N3 S1,CCN(CC)c1ccc(cc1)C=C(C#N)C(N)=S,5.16336031
3198,CELDEC,C15 H14 O2 S1,COc1ccc(cc1)C(=S)c1ccc(OC)cc1,5.6757507
3199,CELDIG,C17 H20 N2 S1,CN(C)c1ccc(cc1)C(=S)c1ccc(cc1)N(C)C,5.27002894
3200,CELDOM,C19 H14 S1,S=C(c1ccccc1)c1ccc(cc1)c1ccccc1,5.61017125
3201,CELDUS,C17 H12 S1,S=C(c1ccccc1)c1cccc2ccccc12,5.50132571
3202,CELHIN,C18 H13 F6 N3 O2 S1,COC(=O)c1ccc(cc1)C=NNC(=S)Nc1cc(cc(c1)C(F)(F)F)C(F)(F)F,5.76173867
3203,CELJEJ,C10 H6 F1 N1 O1 S2,Fc1ccccc1C=C1SC(=S)NC1=O,5.67847183
3204,CELJIN01,C10 H6 F1 N1 O1 S2,Fc1ccc(cc1)C=C1SC(=S)NC1=O,5.72337062
3205,CELJOT,C13 H13 N1 O4 S2,COc1cc(cc(OC)c1OC)C=C1SC(=S)NC1=O,5.34513237
3206,CELJOV,C21 H19 N3 S1,CN(C(=S)NN=C(c1ccccc1)c1ccccc1)c1ccccc1,6.24310807
3207,CELKIO,C13 H19 N1 O5,CCOc1cccc(C=[NH+]C(CO)(CO)CO)c1[O-],5.26567512
3208,CELKOW,C14 H14 N2 O3,COc1cc2CCN3C(=O)C=NC=C3c2cc1OC,5.99548447
3209,CELMOV,C20 H29 N5 O3,CCCCCCNc1nnc(OC(=O)c2ccc(OCCCCC)cc2)nn1,6.287190519999999
3210,CELNEM,C18 H22 O2,CC1=CC(=O)C2(C)C3CCCC3=C3CCCC3C2C1=O,6.1105886300000005
3211,CELNIR,C28 H30 Br1 N3 O4,Nc1c(cc(Br)c2C(=O)c3ccccc3C(=O)c12)C(=O)N(C1CCCCC1)C(=O)NC1CCCCC1,5.16961893
3212,CELNOW,C19 H24 O2,CC1=CC(=O)C2(C)C3CCCCC3=C3CCCC3C2C1=O,6.22324376
3213,CELPAK,C21 H28 O2,CC1=CC(=O)C2(C)C3CCCCC3=C3CCCCCC3C2C1=O,6.29508182
3214,CELPER,C32 H40 N2 S4,CCCCC(CC)CC1=CC=C(S1)c1c2SC=Nc2c(C2=CC=C(CC(CC)CCCC)S2)c2SC=Nc12,5.1010462400000005
3215,CELQIV,C49 H38 N2 O5,CC(C)c1cccc(C(C)C)c1N1C(=O)c2ccc3c4cccc5c(ccc(c6ccc(C1=O)c2c36)c45)c1ccc2C(=O)N(CCCO)C(=O)c3cccc1c23,4.44497975
3216,CELRAP,C20 H14 O3,COc1ccc(cc1)c1cc2ccc(O)c3C(=O)C=Cc(c1)c23,5.17424487
3217,CELRET,C17 H12 N2 O2,CN1C=C(C=N1)c1cc2ccc(O)c3C(=O)C=Cc(c1)c23,5.11437982
3218,CELRIW,C33 H25 N5 O4,O=C(Nc1ccccc1NC(=O)c1cccc(n1)C(=O)Nc1ccccc1NC(=O)c1ccccc1)c1ccccc1,5.89697926
3220,CELVOE11,C17 H19 N1 O5,COc1cc(C=CC(=O)N2CCC=CC2=O)cc(OC)c1OC,6.15494319
3221,CELYUQ,C18 H9 F12 N3 S1,FC(F)(F)c1cc(NC(=S)NN=Cc2cc(cc(c2)C(F)(F)F)C(F)(F)F)cc(c1)C(F)(F)F,5.621327920000001
3222,CEMBUR,C20 H18 N2 O2,CC(=O)C=C1NC(=CNC1c1ccccc1)C(=O)c1ccccc1,5.7799703
3223,CEMHAF,C12 H12 O7,COC(=O)C1=C(C)C=C(O)C(=O)C(=C1C(=O)OC)O,5.97589228
3224,CEMHUA,C23 H21 N3 O2,COc1ccc(cc1)C=CC(=NNC(=O)Nc1ccccc1)c1ccccc1,5.95602796
3225,CEMHUZ,C31 H23 N1 O2,O=CC(C(=O)c1ccccc1)=C(c1ccccc1)C1=CN(Cc2ccccc2)c2ccccc12,5.99385178
3226,CEMJAH,C41 H34 N2 O3,CC(C)(C)OC(=O)N1c2ccccc2C2=C1C(N(c1ccccc1)C(=C2c1ccccc1)C(=O)c1ccccc1)c1ccccc1,5.941605920000001
3227,CEMJEL,C37 H28 N2 O1,CN1c2ccccc2C2=C1C(N(c1ccccc1)C(=C2c1ccccc1)C(=O)c1ccccc1)c1ccccc1,5.57642914
3228,CEMRAQ,C23 H14 F6 O3,CC12Oc3ccccc3C1=C1C(=C3c4ccccc4OC3(C)O2)C(F)(F)C(F)(F)C1(F)F,4.9764181
3229,CEMSPB10,C20 H25 Cl1 N4 O3 S1,CCN(CC)c1ccc(N=Nc2ccc(cc2Cl)S(C)(=O)=O)c(NC(=O)CC)c1,4.94376444
3230,CEMTZP,C24 H21 N3 O2,CCOC(=O)C=C1NC(=NN(c2ccccc2)c2ccccc12)c1ccccc1,5.695615
3231,CEMXAT,C26 H32 N4 O2 S4,O=C1N2CCSCCSCCN(CCSCCSCC2)C(=O)c2cccc(c2)N=Nc2cccc1c2,5.8705842100000005
3232,CEMXEX,C24 H30 N6 O6,O=C1N2CCOCCOCCN(CCOCCOCC2)C(=O)c2cccc(N=Nc3cccc1n3)n2,6.09262911
3233,CENCUV,C42 H46 N2 O2,CCCCCCCCN1c2ccccc2c2cc3C(=O)c4cc5N(CCCCCCCC)c6ccccc6c5cc4C(=O)c3cc12,5.397106109999999
3234,CENDAC,C26 H24,CC(C)=C(C=CC(C#Cc1ccccc1)=C(C)C)C#Cc1ccccc1,5.77942607
3235,CENGEH,C22 H21 P1,Cc1cc(C)c(P=C(c2ccccc2)c2ccccc2)c(C)c1,5.891536980000001
3236,CENLEM,C18 H18 O4 S1,COc1cc(OC)c2CCC(=O)C3=CC=C(S3)C(=O)CCc1c2,6.0314035
3237,CENNIS,C15 H9 Br1 O3 S2,Brc1ccc(CSC2=CC=CC(=O)C3=C2SOC3=O)cc1,5.62540963
3238,CENTUL,C34 H38 O5,COC(=O)C1=C(C2OC1C1=C3C=C(C=C4C=CC5=CC(=CC(=C21)C5(C)C34C)C(C)(C)C)C(C)(C)C)C(=O)OC,4.73859059
3239,CENYAV,C42 H24,c1cc2ccc3ccc(c4cccc5cccc(c6ccc7ccc8cccc9ccc6c7c89)c45)c4ccc(c1)c2c34,5.38431676
3240,CENYEZ,C42 H24,c1cc2ccc3cc(cc4ccc(c1)c2c34)c1cccc2cccc(c3cc4ccc5cccc6ccc(c3)c4c56)c12,5.71820045
3241,CEPCAC,C18 H4 F4 N4 S4,Fc1cc2nc3SC(Sc3nc2cc1F)=C1Sc2nc3cc(F)c(F)cc3nc2S1,4.89641662
3242,CEPCEG,C18 H4 Cl4 N4 S4,Clc1cc2nc3SC(Sc3nc2cc1Cl)=C1Sc2nc3cc(Cl)c(Cl)cc3nc2S1,4.832741990000001
3243,CEPGIP,C22 H18 O4,CCOC(=O)C1=C2c3ccccc3C(=C2c2ccccc12)C(=O)OCC,4.8196805199999995
3244,CEPGIQ,C15 H14 N6 O4,CN1N(c2ccccc2)C(=O)C(=C1C)NN=C1C(=O)NC(=O)NC1=O,5.528264979999999
3245,CEPJIT,C38 H48 N2 O2 S2,CCCSc1ccccc1NC(=CC(=O)C(C)(C)C)c1cccc(c1)C(Nc1ccccc1SCCC)=CC(=O)C(C)(C)C,5.75983387
3246,CEPKEN,C32 H28 O6,C1COC2=C(OCCOCCOC3=C(OCCO1)c1cccc4cccc3c14)c1cccc3cccc2c13,5.58404833
3247,CEPMOA,C20 H17 N5 O2,CC1=NN(c2ccccc2)C(=C1N=C1C(=NN(c2ccccc2)C1=O)C)O,4.85940914
3248,CEPWUP,C38 H28,C1Cc2cc3ccc4cc(CCCc5cc6ccc7cc(C1)cc1ccc(c5)c6c71)cc1ccc(c2)c3c41,5.23438203
3249,CEPXAW,C40 H32,C1CCc2cc3ccc4cc(CCCCc5cc6ccc7cc(C1)cc1ccc(c5)c6c71)cc1ccc(c2)c3c41,5.35111887
3250,CEPYED,C31 H32 N2 S1,CC(C)c1cccc(C(C)C)c1Nc1ccccc1C=Nc1ccccc1Sc1ccccc1,5.74432339
3251,CEPYIH,C37 H37 N2 P1,CC(C)c1cccc(C(C)C)c1Nc1ccccc1C=Nc1ccccc1P(c1ccccc1)c1ccccc1,5.7113976
3252,CEQCOQ,C46 H46 N2,CCCCN(CCCC)c1ccc2C#CC#Cc3ccccc3C#CC#Cc3ccc(cc3C#CC#Cc2c1)N(CCCC)CCCC,5.3217305800000005
3253,CEQMAM,C37 H25 N3 O1,N1C2=C3C=CC(=N3)C(=C3NC(=C(C4=CC=C(O4)C(=C1C=C2)c1ccccc1)c1ccccc1)C=C3)c1ccccc1,4.019121569999999
3254,CEQWON,C15 H7 N3 S2,N#CC(C#N)=C(C#N)C1=CC=C(S1)C=CC1=CC=CS1,4.40252999
3255,CEQWUT,C31 H39 N3 S2,CCCCC1=CSC(=C1CCCC)C=CC1=C(CCCC)C(=C(S1)C(C#N)=C(C#N)C#N)CCCC,4.17395436
3256,CERNAO,C27 H23 N3 O1,CC1=NN2C(=C1CC=C)Nc1ccccc1C2(C(=O)c1ccccc1)c1ccccc1,6.2082775
3257,CERRAS,C22 H25 N3 O2,CC(C)(CC1=CNc2ccccc12)NCC(O)COc1ccccc1C#N,5.7878616
3258,CERTAW,C33 H35 N1 O1,Cc1cc(C)cc(c1)c1cccc(c2cc(C)cc(C)c2)c1N=Cc1cccc(c1O)C(C)(C)C,6.06106391
3259,CERXOM,C22 H18 N2 O4,CC(=O)C(C)(O)Cc1nc2c(ccc3C(=O)c4ccccc4C(=O)c23)nc1C,5.85697852
3260,CESBIO,C17 H14 N2 O2,COc1ccc(C=Nc2cnc3ccccc3c2)c(O)c1,5.75548005
3261,CESBOU,C38 H40 Br2 N2,CCCCCCN1c2ccc(Br)cc2c2cc(C=Cc3ccc4N(CCCCCC)c5ccc(Br)cc5c4c3)ccc12,5.71411874
3262,CESCAF,C23 H19 Cl1 N2 O3 S1,CCOC(=O)C1=C(C)N=C2SC(=Cc3ccc(Cl)cc3)C(=O)N2C1c1ccccc1,5.686091019999999
3263,CESCIN,C13 H12 N2 O1,Cc1ccc(cc1)N=Nc1ccc(O)cc1,6.29780296
3264,CESHEN,C20 H24 O8 S1,CS(=O)CC(C)(O)C1OC(=O)C=C2C3(C)CC4OC4C4(C)C3C(OC4=O)C3OC123,6.491275910000001
3265,CESKUG,C5 H11 N1 O5 S1,[NH3+]C(C(O)=O)C(C)(C)S(=O)(=O)[O-],6.84502391
3266,CESMIW,C19 H16 O2,OC(C=Cc1ccccc1)=CC(=O)C=Cc1ccccc1,5.573708
3267,CESPUM,C28 H31 N1 O5,CCOC(=O)C=C(N1CCC2C(=C(C(=O)OCC)C12OCC)c1ccccc1)c1ccccc1,5.92010894
3268,CESWIH,C27 H18 F6 O2,CC12OC(=CC1=C1C(=C3C=C(OC23C)c2ccccc2)C(F)(F)C(F)(F)C1(F)F)c1ccccc1,4.69287546
3269,CESXOQ,C24 H25 N3 O5,CN1C(=O)C(NC(=O)OC(C)(C)C)(C2N(C(C)=O)c3ccccc3C2=O)c2ccccc12,5.767997289999999
3270,CESZEG,C25 H23 N1 O1,CN1C(COC1c1c2ccccc2cc2ccccc12)Cc1ccccc1,5.505135310000001
3271,CESZIK,C31 H27 N1 O1,C1OC(N(Cc2ccccc2)C1Cc1ccccc1)c1c2ccccc2cc2ccccc12,5.3407785500000005
3272,CETCEK,C19 H18 O3,COc1ccc2C(=O)C=C(c3ccccc3)c2c1OC(C)C,5.9897700799999996
3273,CETLAP,C11 H9 N1 S1,S=C1NC(=CC=C1)c1ccccc1,5.29996147
3274,CETLET,C12 H11 N1 S1,Cc1ccc(cc1)C1=CC=CC(=S)N1,5.47248165
3275,CETLUI,C35 H48 O6,COC(=O)C1=C(C(=O)OC)C2(C=C(C1C1(Cc3cc(cc(c3O1)C(C)(C)C)C(C)(C)C)C2=O)C(C)(C)C)C(C)(C)C,6.2605233600000005
3276,CETMAN,C17 H15 Cl1 S1,ClCCSCc1c2ccccc2cc2ccccc12,5.48445466
3277,CETQOJ,C40 H42,CCCCCc1ccc(cc1)C=Cc1c2ccccc2c(C=Cc2ccc(CCCCC)cc2)c2ccccc12,5.03002453
3278,CETQUP,C40 H42,CCCCCc1ccc(cc1)C=Cc1cccc2cc3c(cccc3cc12)C=Cc1ccc(CCCCC)cc1,4.96716623
3279,CETRAV,C19 H17 N1 O3,COc1ccc(cc1)C1=NC=C(CC(=O)c2ccc(C)cc2)O1,6.1290923699999995
3280,CETZIK,C15 H21 N1 O4 S1,COC(=O)C1=C(C(=O)OC)C(=CCSCC1)N1CCCC1,6.16691619
3281,CETZUW,C32 H46 N2 O8,COC(=O)C1C(CCCC=C(C1C(=O)OC)N1CCCC1)C1CCCC=C(N2CCCC2)C(=C1C(=O)OC)C(=O)OC,5.8999725100000004
3282,CEVHAP,C36 H35 N3,CCCN(CCC)c1ccc(C=Cc2ccc(cc2)c2cc(nc(c2)c2ccccn2)c2ccccc2)cc1,5.35901017
3283,CEVHUI,C20 H22 N4 O2 S1,CCCCNc1cc(nc2c1nc(SC)nc2c1ccccc1)C(=O)OC,5.70187363
3284,CEVKUM01,C13 H14 N2 O5,OC(=O)c1ccc(C(=O)[O-])c(NC(=O)C2[NH2+]CCC2)c1,5.62404906
3285,CEVLIB,C26 H23 N3 O9,COC(=O)C=C(NC(=O)C1C(C(=O)OC)C(=C2C=Cc3ccc4cccnc4c3N12)C(=O)OC)C(=O)OC,5.08335884
3286,CEVNAV,C24 H21 N3 O5,CCOC(=O)C=CC1(C=CC(=O)OCC)N2C(=NC1=O)C=Cc1c2ccc2cccnc12,5.79303176
3287,CEVTOP,C22 H17 B1 F2 N4 O1,Cc1ccc(cc1)N=Nc1ccc(O)c(c1)C1=C2C=CC=[N+]2[B-](F)(F)N2C=CC=C12,4.82485068