,ID,formula,smiles,HOMO_LUMO_gap
10506,HICFEH,C44 H30 O2,COc1ccc(cc1)C#Cc1c(C#Cc2ccc(OC)cc2)c2c(cccc2c2cccc(c3ccccc3)c12)c1ccccc1,5.267852029999999
10507,HICFIL,C42 H24 F2,Fc1ccc(cc1)C#Cc1c(C#Cc2ccc(F)cc2)c2c(cccc2c2cccc(c3ccccc3)c12)c1ccccc1,5.207986980000001
10508,HICFOR,C44 H36 N2 S1,CC(C)(C)c1cc2ccc3cc(cc4c3c2c(c1)C1=C(c2ccccc2)C2=CC3=NSN=C3C=C2C(=C41)c1ccccc1)C(C)(C)C,4.3608965699999995
10511,HICJAG,C18 H14 N4 S3,CCN1C2=C(SC=C2)C2=C1C1=C(C3=C(C=CS3)N1CC)C1=NSN=C21,5.34567659
10512,HICJIO01,C18 H14 N4 S3,CCN1C2=C(C=CS2)C2=C1C1=C(C3=C(SC=C3)N1CC)C1=NSN=C21,5.50840068
10513,HICJOU,C24 H22 N4 O2 S1,CCN1c2cc(OC)ccc2C2=C1C1=C(c3ccc(OC)cc3N1CC)C1=NSN=C21,5.09587608
10514,HICLUD,C42 H36 B1 N3 O1,Cc1ccc(cc1)C1=CC(=C2N=C3[N+](=C(C=C3c3ccc(C)cc3)c3ccc(C)cc3)[B-](O)(N12)c1ccccc1)c1ccc(C)cc1,3.6316314500000004
10515,HICRUI,C7 H13 N1 O2,[NH3+]C1CCC(CC1)C(=O)[O-],5.00961599
10516,HICSIW,C33 H32 O1 S2,CC(C)(C)Sc1ccc(cc1)c1ccc2c3ccc(cc3C(=O)c2c1)c1ccc(SC(C)(C)C)cc1,5.45125677
10517,HICVEV,C17 H11 Cl2 N1 O1,Oc1ccc2ccccc2c1C=Nc1cc(Cl)ccc1Cl,5.6030963
10518,HICVUK,C21 H22 O5,COC1=CC=C2C(=CC=Cc3cc(OC)c(OC)c(OC)c23)C=C1OC,5.7987461499999995
10519,HICWOG,C17 H11 N1 O1,Cc1ccc2c(c1)C(=O)C(=C2c1ccccc1)C#N,5.58921849
10520,HICXEX,C16 H12 O1,CC1=C(c2ccccc2)c2ccccc2C1=O,5.80010672
10521,HICXOH,C23 H17 N1 O1,CC1(O)c2ccccc2C(=C1C#Cc1ccccn1)c1ccccc1,5.657519069999999
10522,HIDDEG,C18 H17 N1 O3,COc1ccc(cc1)C1=CC(=C(C2CC2)N1C=CC=O)C=O,5.99276333
10523,HIDKAJ,C16 H10 I2 N2 O1,Oc1ccccc1C=Nc1c(I)cc(I)c2cccnc12,5.80201152
10524,HIDKEK,C28 H30 Br1 N3 O3,CNC(=O)C(C)(Cc1ccccc1)NC(=O)C(C)(Cc1ccccc1)NC(=O)c1ccc(Br)cc1,6.99713555
10525,HIDMIQ,C19 H18 O3,COc1ccccc1C=CC(=O)C=Cc1ccccc1OC,5.97698073
10526,HIDPIU,C14 H11 N1 O1 S2,CN1C(=S)C(Oc2ccccc12)=CC1=CC=CS1,5.366357239999999
10527,HIDPOA,C14 H12 N2 O1 S1,CN1C(=S)C(Oc2ccccc12)=CC1=CC=CN1,5.33778529
10528,HIDVAT,C24 H12 Cl2 F3 N3,FC(F)(F)C1=C2C(=C(c3ccccc3)C3=Nc4cc(Cl)c(Cl)cc4N13)Nc1ccccc21,5.0000919999999995
10529,HIDXAU,C21 H12 Cl4 N2 O2 S3,Clc1ccc(CSC2=NC(=C(S2)C=C2SC(=O)N(Cc3ccc(Cl)cc3Cl)C2=O)Cl)cc1,5.4615971
10530,HIFBAC,C26 H40 N6 O4,CC1=CC(=O)Nc2cc(ccc12)N(CC(=O)OC(C)(C)C)C(=O)CN1CCNCCNCCNCC1,6.0137161
10531,HIFBIJ,C36 H42 O2,CCCCCCCCc1cc2Oc3ccc4cc(CCCCCCCC)cc5Oc6ccc(c1)c2c6c3c45,5.14567291
10532,HIFBOP,C36 H42 O2,CCCCCCCCc1ccc2ccc3Oc4c(CCCCCCCC)ccc5ccc6Oc1c2c3c6c45,5.22839552
10533,HIFBUV,C36 H42 O2,CCCCCCCCc1cc2cccc3Oc4c(CCCCCCCC)cc5cccc6Oc1c(c23)c4c56,5.3456766
10534,HIFCEF,C21 H14 Cl1 N1 O3,CC(=O)C1=C(C)N(c2ccc(Cl)cc2)C2=C1C(=O)c1ccccc1C2=O,5.88473413
10535,HIFDAC,C22 H12 O2,O=C1c2ccccc2C2=C(c3ccccc3)C(=O)c3cccc1c23,5.29043748
10536,HIFDUW,C15 H16 O4,CC1COC2=C(C)C(=O)C(=C3C(C)CC(=O)C1=C23)O,5.528537099999999
10537,HIFFOS,C20 H15 N1,C(c1ccccc1)c1c2ccccc2nc2ccccc12,5.63955955
10538,HIFHUB,C31 H19 F5 N2 O4,COc1ccc(cc1)C(=O)C1=CC=C(N1)C(=C1C=C(C=N1)C(=O)c1ccc(OC)cc1)c1c(F)c(F)c(F)c(F)c1F,4.943492320000001
10539,HIFJOY,C20 H11 F3 N2,FC(F)(F)c1cc(ccc1N1c2ccccc2c2ccccc12)C#N,5.83276039
10540,HIFJUE,C22 H15 F3 N2 O2,COc1ccc2N(c3ccc(OC)cc3c2c1)c1ccc(cc1C(F)(F)F)C#N,5.393840749999999
10541,HIFKAL,C22 H15 F3 N2 O2,COc1ccc2c(c1)N(c1ccc(cc1C(F)(F)F)C#N)c1cc(OC)ccc21,5.18839479
10542,HIFKEO,C28 H25 N1 O3,O=C(c1ccccc1)C(N1CCCCC1)=C(C(=O)c1ccccc1)C(=O)c1ccccc1,6.247734
10543,HIFNIT,C11 H11 N3 S1,Cc1ccc2c(N)nc3SCCc3c2n1,5.747316639999999
10544,HIFNOZ,C11 H11 N3 O1,Cc1ccc2c(N)nc3OCCc3c2n1,5.972354800000001
10545,HIFQIY,C21 H23 N1 O1 S6,CCCSC1=C(SCCC)SC(S1)=C1SC2=CN(C=C2S1)c1ccc(OC)cc1,5.65942387
10546,HIFQOF,C16 H12 B1 N3 O1,CO[B-]12N3C4=CC=C3C=C3C=CC(=[N+]13)C=C1C=CC(=C4)N21,5.31547196
10547,HIFRIY,C23 H22 Br1 N3,CN(C)c1ccc(cc1)C1CC(=NN1c1ccccc1)c1ccc(Br)cc1,5.74622818
10548,HIFRUL,C10 H8 N2 O2,CNC1=CC(=O)c2ccncc2C1=O,5.58404832
10549,HIFSAS,C10 H7 Br1 N2 O2,CNC1=C(Br)C(=O)c2ccncc2C1=O,5.11846153
10550,HIFSEW,C10 H7 Cl1 N2 O2,CNC1=C(Cl)C(=O)c2ccncc2C1=O,5.1598228299999995
10551,HIFSIY,C10 H10 S8,CSC1=C(SC)SC(S1)=C1SC2=C(SCCS2)S1,5.782963550000001
10552,HIFSIZ,C13 H15 N1 O5,CC1(C)OCC(CO1)(OC(=O)c1ccccc1)N=O,7.230065010000001
10553,HIFSOF,C13 H14 Cl1 N1 O5,CC1(C)OCC(CO1)(OC(=O)c1ccc(Cl)cc1)N=O,7.14489337
10554,HIFSUL,C11 H11 N1 O5,O=NC1(COCOC1)OC(=O)c1ccccc1,7.17754703
10557,HIFXUP,C10 H4 N2 S6,N#CC1=C(SC(S1)=C1SC2=C(SCCS2)S1)C#N,4.54702244
10560,HIFYUS,C17 H15 N1 O2,CON=C(C#Cc1ccccc1)c1ccc(OC)cc1,6.111132859999999
10561,HIFZAX,C42 H41 N1 O1,COc1ccc(c(CN(C)C)c1)C(c1ccc(C)cc1)=C1c2ccc(C)cc2C(=C1c1ccc(C)cc1)c1ccc(C)cc1,5.37969082
10563,HIGCEF,C19 H19 N1 O3,O=C(C1CC2(CCCO2)ON1c1ccccc1)c1ccccc1,6.05807066
10564,HIGCIJ,C18 H17 N1 O3,O=C(C1C2CCOC2ON1c1ccccc1)c1ccccc1,5.97861341
10565,HIGDAC,C2 H7 F1 N1 O3 P1,[NH3+]CC(F)P(O)(=O)[O-],5.55901386
10566,HIGDAF,C21 H22 Br1 N1 O1,CC(C)(C)N1OC2CC1c1ccccc1C2=Cc1ccc(Br)cc1,6.66080283
10567,HIGKOZ,C31 H38 B1 N1,C[N+](C)=C1C=C2C3C(=C1)C(C)(C)c1cccc4Cc5cccc(c5[B-]3(c14)C(C)(C)C)C2(C)C,5.9598375500000005
10568,HIGLUF,C13 H12 F3 N3 O5 S1,FC(F)(F)S(=O)(=O)OC1=CC=CN2C(=O)C=C(N=C12)N1CCOCC1,6.066506179999999
10569,HIGNIV01,C34 H44,CCCCc1ccc(CCCC)c2cc3cc4c(CCCC)ccc(CCCC)c4cc3cc12,4.731787750000001
10570,HIGNOC,C17 H14 N4 S1,S=C(NN=Cc1ccccn1)Nc1cccc2ccccc12,5.74976566
10571,HIGQAS,C26 H24 Br1 N1 O4 S1,COc1ccc(SCC2(C)C(=O)N(Cc3ccccc3)c3ccc(Br)cc3C2=O)cc1OC,5.58486467
10572,HIGQEW,C22 H22 N2 O4,COc1ccccc1N=C(C=Cc1ccccc1)C(C)C(=O)N1CCOC1=O,6.2297744900000005
10573,HIGSIA,C22 H14 N2 S6,CSC1=C(SC)SC(S1)=C1SC(=C(S1)C#Cc1ccccn1)C#Cc1ccccn1,4.237629
10574,HIGWUQ,C26 H32 O9,CCCC(=O)c1c(O)c2CC3(C)C(=O)C(=C(O)C(C)CC)C(=O)OC3(Oc2c(C)c1OC)C(C)=O,6.52365745
10575,HIGXAX,C26 H32 O9,CCC(C)C(O)=C1C(=O)OC2(Oc3c(C)c(OC)c(c(O)c3CC2(C)C1=O)C(=O)C(C)C)C(C)=O,6.5421612
10576,HIGXOL,C23 H19 N3 O6 S1,COc1ccc(cc1)C(=O)OC1=C(N(C)S(=O)(=O)c2ccccc12)C(=O)Nc1ccccn1,6.0648735
10577,HIGYII,C24 H18 N2 O3,CON=C1OC2=C(C(=O)N(Cc3ccccc3)c3ccccc23)c2ccccc12,5.831127700000001
10578,HIGZED,C16 H18,CC(C)(C)c1ccc(cc1)C=C1C=CC=C1,5.88555047
10579,HIGZIH,C17 H14 O1,COc1ccc(cc1)C=C1C=Cc2ccccc12,5.542414900000001
10580,HIGZON,C16 H19 N1,CCN(CC)c1ccc(cc1)C=C1C=CC=C1,5.32336325
10581,HIGZOP,C12 H11 N3 O2 S2,NS(=O)(=O)c1ccc(NC(=S)c2ccccn2)cc1,5.88718316
10582,HIGZUT,C14 H13 N1 O1,CC(=O)Nc1ccc(cc1)C=C1C=CC=C1,5.83112771
10583,HIHBAC,C17 H14,Cc1ccc(cc1)C=C1C=Cc2ccccc12,5.9214695
10584,HIHHIS,C8 H11 N5 S1,CNC(=S)NN=Cc1cccnc1N,5.96010966
10585,HIHMIV,C17 H19 N3 O4,OCC(CO)(CO)NC=C1C=C(C=CC1=O)N=Nc1ccccc1,5.29397496
10586,HIHMOA,C9 H4 S4,S=C1SC2=C(S1)c1ccccc1S2,6.02187951
10587,HIHPUL,C26 H19 N1 O3,CCOC(=O)c1ccc(O)c(C=Nc2ccc3ccc4cccc5ccc2c3c45)c1,4.96390086
10588,HIHWIH,C6 H6 N4 O6,OC(=O)COc1nnc(OCC(O)=O)nn1,6.511956550000002
10589,HIJBEK,C20 H28 O4,CC1(C)C2CCC3(C)C(O)C4=C(CC(C)(O)C4=O)C(=O)C3(C)CC12,6.58488307
10590,HIJBOU,C34 H25 As1,c1ccc(cc1)[As]1C(=C(c2ccccc2)C(=C1c1ccccc1)c1ccccc1)c1ccccc1,5.715479320000002
10591,HIJCUZ,C24 H22 S2,CCc1ccc(cc1)C1=CC=C(S1)C1=CC=C(S1)c1ccc(CC)cc1,5.59003483
10592,HIJDAG,C20 H14 O2 S2,Oc1ccc(cc1)C1=CC=C(S1)C1=CC=C(S1)c1ccc(O)cc1,5.75139834
10593,HIJDEK,C32 H38 O4 S2,OCCCCCCOc1ccc(cc1)C1=CC=C(S1)C1=CC=C(S1)c1ccc(OCCCCCCO)cc1,5.18948324
10594,HIJFIP01,C11 H14 N6,NC(N)=NN=C1CCc2c(cccc12)C(N)=N,6.101064640000001
10595,HIJFOX,C22 H17 P1,c1ccc(cc1)P1C=C(C=C1c1ccccc1)c1ccccc1,5.92364641
10596,HIJGAL,C25 H22 N2 O4,COc1cc(cc(OC)c1OC)C(=O)NN=Cc1c2ccccc2cc2ccccc12,5.26948472
10597,HIJHUF,C18 H13 N3 S1,N1C=C(Sc2ccccc2)c2ncnc(c12)c1ccccc1,6.035213089999999
10598,HIJPIC,C22 H19 F6 I1 N2 O2,FC(F)(I)C(F)(F)C(F)(F)C1=C(C(=O)N2CCCN3CCCCC1=C23)C(=O)c1ccccc1,5.22322536
10599,HIJPOI,C24 H25 F7 N2 O3,CCOC(=O)C(C(=O)c1ccccc1)=C(C1=C2NCCCN2CCCC1)C(F)(F)C(F)(F)C(F)(F)F,5.7791539499999995
10600,HIJRIE,C28 H26 N2 O2,Cc1ccc2c(c1)C1C(C)(C)N3OC(c4ccccc34)C1(C)C2=Nc1ccccc1C=O,6.28637418
10601,HIJROH,C30 H22 Cl2 O4,CC1=CC(=O)C2=CC(c3ccc(Cl)cc3)C3(C=Cc4ccc(Cl)cc4)C(C2C1=O)C(=O)C(=CC3=O)C,5.63819899
10602,HIJYAC,C20 H36 P6,CC(C)(C)C1=PC2(P3P4P1C1(P2P1C34C(C)(C)C)C(C)(C)C)C(C)(C)C,5.7500377799999995
10603,HIKLUJ,C24 H18 N7 O2 P1 S1,S=P(Oc1ccc(cc1)N=Nc1ccccc1)(Oc1ccc(cc1)N=Nc1ccccc1)N=[N+]=[N-],6.33290564
10604,HIKMAQ,C34 H35 N3 O2 P2 S1,CN(C)c1cccc(OP(=S)(Oc2cccc(c2)N(C)C)N=P(c2ccccc2)(c2ccccc2)c2ccccc2)c1,6.09643871
10605,HIKWUU,C17 H20 F1 N5 O2 S1,Fc1ccc2N(CN3CCOCC3)C(=O)C(=NNC(=S)NCC=C)c2c1,4.2887864
10606,HIKXAB,C18 H22 F1 N5 O1 S1,Fc1ccc2N(CN3CCCCC3)C(=O)C(=NNC(=S)NCC=C)c2c1,5.27628756
10607,HILDUE,C12 H10 N6 S1,NC(=S)c1cc(nc(c1)N1C=CC=N1)N1C=CC=N1,5.95521161
10608,HILFIR,C32 H30 N2 O2,Cc1cc(C)c(Nc2ccc(Nc3c(C)cc(C)cc3C)c3C(=O)c4ccccc4C(=O)c23)c(C)c1,4.44906146
10609,HILMUL,C25 H20 Cl1 N3 O3,CN1N(C(=O)C(=C1C)N=Cc1ccc(OC(=O)c2ccc(Cl)cc2)cc1)c1ccccc1,5.99983829
10610,HILPUP,C17 H21 N1 O2 S2,CC(C)N1CCC(O)(C(C1)C(=O)C1=CC=CS1)C1=CC=CS1,6.25426474
10611,HILQUP,C9 H8 N2 S5,S=C1SSC(=C1SCCC#N)SCCC#N,5.57098686
10612,HILRIG,C24 H21 N1 O1 S1,COc1ccccc1C1=CC(=C(S1)c1ccccc1)NCc1ccccc1,5.611803940000001
10613,HILROK,C30 H28 N2 O2,Cc1ccc(O)c(c1)C(Cc1ccccc1)=NN=C(Cc1ccccc1)c1cc(C)ccc1O,5.974803820000001
10614,HILSIH,C33 H26 N2 O1,Cc1ccc(cc1)N1C=C(C(=O)c2ccc(C)cc2)C(=C1c1ccccc1)C1=CNc2ccccc12,5.93453096
10615,HILSUR,C18 H16 N4 O1 S2,CC1=NN(C(=S)SCc2ccccc2)C(=O)C1=NNc1ccccc1,5.28608366
10616,HILVIK,C39 H53 N3 O3,CC(C)CCCC(C)C1CCC2C3CC=C4CC(CCC4(C)C3CCC12C)OC(=O)Oc1ccc(cc1)N=Nc1ccncc1,6.22052262
10617,HIMPEB,C31 H24 Cl1 N1 O2 S1,Cc1ccc(cc1)S(=O)(=O)N1c2ccccc2C(=C1C=CC=Cc1ccc(Cl)cc1)c1ccccc1,5.37043895
10618,HIMPIF,C31 H22 Cl1 N1 O2 S1,Cc1ccc(cc1)S(=O)(=O)N1c2ccccc2c2c1cc(C=Cc1ccc(Cl)cc1)c1ccccc21,5.41152814
10619,HIMRUT,C16 H10 N2 S4,S1SC(=C2SSN=C2c2ccccc2)C(=N1)c1ccccc1,4.474640150000001
10620,HIMSEE,C17 H13 N1 O2,O=C(Cc1cccc2ccc[n+]([O-])c12)c1ccccc1,5.96391926
10622,HIMTUV,C22 H17 Br1 O4 S1,COC(=O)C1=C(C(=O)c2cccc(Br)c2)C2=C(OC1C)c1cc(C)ccc1S2,5.48527099
10623,HIMVAD,C18 H18 O7 S1,CCOC(=O)C1=C(C(C)OC2=C1S(=O)(=O)c1ccc(C)cc21)C(=O)OC,5.887183149999999
10624,HIMVEH,C18 H18 O5 S1,CCOC(=O)C1=C(C(C)OC2=C1Sc1ccc(C)cc21)C(=O)OC,5.52255059
10625,HIMVIL,C22 H19 Cl1 O4 S1,CC(C)OC(=O)CC1Oc2ccccc2C=C1C1=C(O)c2cc(Cl)ccc2S1,5.764187699999999
10626,HIMYUZ,C16 H9 B1 F2 N2 O2,F[B-]1(F)OC2=C(Nc3ccccc23)C2=[N+]1c1ccccc1C2=O,4.27654127
10627,HINBOY,C13 H10 N2 O2 S3,CSC1=NC(=C(S1)C1=NC(=CS1)OCC#C)OCC#C,5.96636828
10628,HINBUD,C29 H26 N2,Cc1ccc(cc1)N(c1ccc(C)cc1)c1c2cc(C)ccc2nc2ccc(C)cc12,5.03601103
10629,HINCEO,C25 H18 N2,c1ccc(cc1)N(c1ccccc1)c1c2ccccc2nc2ccccc12,5.12308747
10630,HINDPN,C28 H18,C1C=Cc2ccc3ccc4ccc5C=Cc6ccc7C=CCc7c6c5c4c3c12,5.56853783
10631,HINGOC,C22 H16 N2,C(N1c2cccnc2c2cccc3cccc1c23)c1ccccc1,5.40690221
10632,HINGUI,C12 H8 F3 N1 O1 S1,FC(F)(F)C(=O)C1=CN=C(SC1)c1ccccc1,6.05562163
10633,HINHUH,C17 H17 N1 S2,CNC(SCc1ccccc1)=CC(=S)c1ccccc1,5.683642
10634,HINHUK,C19 H13 N3 O5 S1,COc1ccc(cc1OC)C(N1C(=O)c2ccccc2S1(=O)=O)=C(C#N)C#N,5.30404318
10635,HINKOH,C26 H20 N4 S2,S=C1Nc2ccccc2c2ccccc2NC(=S)Nc2ccccc2c2ccccc2N1,6.19712083
10636,HINMOI,C17 H14 N4 S1,S=C1N(C=CN1N=Cc1ccccc1)N=Cc1ccccc1,5.397106109999999
10637,HINSEC,C27 H32 O1 S1,CCC1=CC=C(S1)C(c1ccccc1)=C1C=C(C(=O)C(=C1)C(C)(C)C)C(C)(C)C,4.8523341900000005
10638,HINYAH,C38 H30 Br2 O2,Cc1cc(C)c(c(C)c1)C1=C2C=C3Oc4ccc(Br)cc4C(=C3C=C2Oc2ccc(Br)cc12)c1c(C)cc(C)cc1C,4.06782995
10639,HIPDIW,C44 H24 O1,Cc1c2ccc3cccc4c5cccc6ccc(c1C(=O)c1ccc7c8cccc9cccc(c%10cccc1c7%10)c89)c(c56)c2c34,4.61151343
10640,HIPDOC,C29 H16 O1,O=C(C#Cc1ccccc1)c1ccc2c3cccc4cccc(c5cccc1c25)c34,4.51654569
10641,HIPDUI,C24 H14 O1,CC#CC(=O)c1ccc2c3cccc4cccc(c5cccc1c25)c34,4.5540974
10642,HIPFAQ,C31 H20 O1,Cc1ccc(cc1)C(=O)c1c(C)c2ccc3cccc4c5cccc6ccc1c(c56)c2c34,5.27438276
10643,HIPGAR,C27 H20 N2 O2 S1,NC1=C(Sc2nc(cc(c3ccccc3)c12)c1ccccc1)C(=O)OCc1ccccc1,5.499420920000001
10644,HIPGEV,C28 H30 N2 O2 S1,CCCCCCCCOC(=O)C1=C(N)c2c(S1)nc(cc2c1ccccc1)c1ccccc1,5.5579254
10645,HIPKEW,C30 H46 Br1 N5 O7,CC(NC(=O)c1ccc(Br)cc1)C(=O)NC(C)(C)C(=O)NC(C)(C)C(=O)NC(C)(C)C(=O)NC(C)(C)C(=O)OC(C)(C)C,5.975892269999999
10646,HIPKIA,C32 H50 Br1 N5 O7,CC(C)C(NC(=O)c1ccc(Br)cc1)C(=O)NC(C)(C)C(=O)NC(C)(C)C(=O)NC(C)(C)C(=O)NC(C)(C)C(=O)OC(C)(C)C,6.002831540000001
10647,HIPKOG,C26 H38 Br1 N5 O7,COC(=O)C(C)NC(=O)C(C)(C)NC(=O)C(C)(C)NC(=O)C(C)(C)NC(=O)C(C)NC(=O)c1ccc(Br)cc1,6.54297753
10648,HIPLUQ,C32 H41 N2 P1,CC(C)c1cccc(C(C)C)c1NCC1=CC=CC2=CN(P=C12)c1c(cccc1C(C)C)C(C)C,5.4907132800000005
10649,HIPMOI,C12 H10 N2 S2,Nc1ccc2c(SSc3cc(N)ccc23)c1,5.98650471
10650,HIPPIF,C19 H19 N3 O3,CCC(C)N1C(=O)c2ccc3N(C)N(C)C(=O)c4ccc(C1=O)c2c34,5.09533185
10651,HIPPOL,C28 H37 N3 O3,CCCCCCC(CCCCCC)N1C(=O)c2ccc3N(C)N(C)C(=O)c4ccc(C1=O)c2c34,4.96961526
10652,HIPPUT01,C26 H33 N3,CC(C)c1cccc(C(C)C)c1N=C(Nc1cccc2cccnc12)C(C)(C)C,5.923374300000001
10653,HIPTIK,C19 H19 N3 O1,O=C1NC(=C2CCc3ccccc3C2=C1C#N)N1CCCCC1,5.8330325
10654,HIPWAE,C22 H20 O4,CCOC(=O)C(=Cc1c2ccccc2cc2ccccc12)C(=O)OCC,5.3290776399999995
10655,HIPXAF,C9 H8 N4,N1C=CN=C1N=Nc1ccccc1,6.01534878
10656,HIQDES,C26 H14 Br4 N2,Brc1ccc(cc1)N=C1c2ccc(Br)cc2C(=Nc2ccc(Br)cc2)c2ccc(Br)cc12,5.9407895900000005
10657,HIQDIW,C26 H15 Br3 N2,Brc1ccc(cc1)N=C1c2ccccc2C(=Nc2ccc(Br)cc2)c2cc(Br)ccc12,5.57506857
10658,HIQDOC,C26 H18 Br2 N4,Nc1ccc2c(c1)C(=Nc1ccc(Br)cc1)c1ccc(N)cc1C2=Nc1ccc(Br)cc1,5.49234596
10659,HIQHUK,C22 H19 N1 O4 S1,COc1ccc(CC2=C(OC(=O)C(=C2SC)C#N)c2ccc(OC)cc2)cc1,5.90813593
10660,HIQLIC,C11 H17 N1 O6 P2,CC1[NH+](CP(O)(O)=O)CP(=O)([O-])OC1c1ccccc1,6.69046324
10661,HIQPUS,C21 H16 O6,COC1=CC2=C(C(=C1OC)OC)C1=C(C=C2)C(=O)C2=C(C=CC=C2O)C1=O,5.443909700000001
10662,HIQREE,C16 H13 N1 O2 S1,CCSC1=CC(=O)c2nc3ccccc3c(C)c2C1=O,5.72418695
10663,HIQRII,C21 H15 N1 O2 S1,Cc1ccc(SC2=CC(=O)c3nc4ccccc4c(C)c3C2=O)cc1,5.71166972
10664,HIQSAB,C12 H11 N1 O3,CN(C)C1=CC(=O)C2=C(C=CC(=C2)O)C1=O,5.466767250000002
10665,HIQVAE,C18 H10,c1ccc2c(c1)c1ccc3C=Cc4ccc2c1c34,5.10349527
10666,HIQWUZ,C28 H27 N1 O6,CCOC(=O)C1=C(C)NC(=C(C1c1ccc2OC(=CC(=O)c2c1)c1ccccc1)C(=O)OCC)C,6.07439748
10667,HIQYAK,C14 H11 Br3 N2,BrCc1ccc(cc1)N=Nc1ccc(cc1)C(Br)Br,6.05262838
10668,HIQYEO,C14 H10 Br4 N2,BrC(Br)c1ccc(cc1)N=Nc1ccc(cc1)C(Br)Br,5.95112991
10669,HIQYIS,C14 H11 Br3 N2,BrCc1cccc(c1)N=Nc1cccc(c1)C(Br)Br,6.27929921
10670,HIQYOY,C14 H10 Br4 N2,BrC(Br)c1cccc(c1)N=Nc1cccc(c1)C(Br)Br,6.347327679999999
10671,HIQYUE,C14 H9 Br5 N2,BrC(Br)c1cccc(c1)N=Nc1cccc(c1)C(Br)(Br)Br,6.24991092
10672,HIQZAJ,C10 H14 N4 S4,CC(=NN=C1SCCS1)C(C)=NN=C1SCCS1,6.1391605799999995
10673,HIQZAL,C23 H16 O1,O=C1C(CCC1=CC#Cc1ccccc1)=CC#Cc1ccccc1,5.40336473
10674,HIQZEP,C23 H14 Br2 O1,Brc1ccc(cc1)C#CC=C1CCC(=CC#Cc2ccc(Br)cc2)C1=O,5.20771487
10675,HIQZIT,C24 H18 O1,O=C1C(CCCC1=CC#Cc1ccccc1)=CC#Cc1ccccc1,5.61180394
10676,HIQZOX,C21 H19 Br1 N2 O2,CC1(C)OC2=C(CC1Br)C(=O)C(=NNc1ccccc1)c1ccccc21,5.20662642
10677,HIQZOZ,C24 H16 Br2 O1,Brc1ccc(cc1)C#CC=C1CCCC(=CC#Cc2ccc(Br)cc2)C1=O,5.44499815
10678,HIQZUF,C28 H26 O1,CC(C)(C)C1CC(=CC#Cc2ccccc2)C(=O)C(C1)=CC#Cc1ccccc1,5.671124750000001
10679,HIRBAO,C30 H30 O1,Cc1ccc(cc1)C#CC=C1CC(CC(=CC#Cc2ccc(C)cc2)C1=O)C(C)(C)C,5.4109839200000005
10680,HIRBES,C20 H16 O2,O=C1C(CCCC1=CC1=CC=CO1)=CC#Cc1ccccc1,5.665682479999999
10681,HIRBIW,C18 H20 O2,CCCCC#CC=C1CCCC(=CC2=CC=CO2)C1=O,5.798201929999999
10682,HIRCIV,C26 H19 Br1 N2 O2,Oc1ccccc1C=Nc1ccccc1N=C(c1ccccc1)c1cc(Br)ccc1O,6.00446423
10683,HIRFET,C44 H27 Br1 N4,BrC1=C2C3=NC1=C(C1=CC=C(N1)C(=C1C=CC(=N1)C(=C1C=CC(=C2c2ccccc2)N31)c1ccccc1)c1ccccc1)c1ccccc1,3.52115323
10685,HIRHEW,C39 H30 Cl2 N2 O2,CN1CC(=Cc2ccc(Cl)cc2)C(=O)C2(C1)C(C(NC12C(=O)c2cccc3cccc1c23)c1ccccc1)c1ccc(Cl)cc1,6.27821076
10686,HIRJIC,C13 H11 N5 O1,Nc1ncnc2N=CN(CC(=O)c3ccccc3)c12,5.83003925
10687,HIRLIG,C17 H19 N1 O3,CN(C)c1ccc2c(OC(=O)C3=C2OC(C)(C)C=C3C)c1,5.7301734699999995
10688,HIRLOM,C15 H12 N4,N(N=Cc1cnc2ccccc2n1)c1ccccc1,5.63411728
10689,HIRPAB,C17 H12 I2 N2 O2,CN(c1ccc(I)cc1)C1=CC(=O)N(c2ccc(I)cc2)C1=O,6.082560900000001
10691,HIRQEF,C14 H11 N1 O2,CC(=O)C1=C(C=CO1)C1=Cc2ccccc2N1,5.51493141
10692,HIRREG,C14 H16 O5,COC1=C(C)C(=O)OC(=C1)C(C)=CC(C)=CC(O)=O,5.35411212
10693,HIRSEJ,C17 H11 F1 O3,COc1ccc(cc1)C1=C(C=O)c2ccc(F)cc2C1=O,5.14676136
10694,HIRZIS,C26 H26 N4 O3,CN(C)c1ccc(cc1)C1=NOC(=N1)c1ccccc1OCC(=O)Nc1c(C)cccc1C,5.62160003
10695,HISCAO,C11 H17 N1 O6,OC(=O)C[NH+](CC(=O)[O-])C1(CCCCC1)C(O)=O,6.3024289
10696,HISCIW,C9 H8 N4 O1 S1,NC1=NN=C(S1)N=Cc1ccccc1O,5.83031136
10697,HISDAP,C10 H13 N3 O1 S1,COc1ccc(cc1)C(C)=NNC(N)=S,5.9995661799999995
10698,HISDET01,C15 H16 N2 O1,CN(C)c1ccc(cc1)C=Nc1ccccc1O,5.86160446
10699,HISDUJ,C33 H30 Cl2 N2 O2,Clc1ccccc1C=CC(=O)C1C(C2CC3CCCCC3N2C21C(=O)Nc1ccccc21)c1ccccc1Cl,6.11711936
10700,HISFIZ,C31 H33 N1 O6,CCOC(=O)C1NC(C(C1c1ccccc1)C(=O)C=Cc1ccccc1)c1cc(OC)c(OC)c(OC)c1,6.12555488
10701,HISGIA,C15 H14 O3,CC1COc2cc(C)c3C(=O)C(=O)C(=Cc3c12)C,5.57289166
10702,HISMII,C10 H14 N2 O3 S1,CCN1C(=O)C(=C(C)O)C(=O)N(CC)C1=S,5.97072211
10703,HISMOM,C14 H11 N1 O3,CC(=O)N(c1ccccc1)C1=CC(=O)C=CC1=O,5.900788840000001
10704,HISMOO,C11 H16 N2 O3 S1,CCN1C(=O)C(=C(O)CC)C(=O)N(CC)C1=S,5.94405495
10705,HISMUU,C18 H29 N3 O5 S1,CCN1C(=C(C(=O)C(NC(=O)OC(C)(C)C)C(C)C)C(=O)N(CC)C1=S)O,6.57100526
10706,HISNAB,C16 H19 N3 O2 S2,CCN1C(=C(C(=S)Nc2ccc(C)cc2)C(=O)N(CC)C1=S)O,5.60663377
10707,HISNEE,C23 H23 N1 O4,CCCCOC(=O)C=CC1=C(OC(=O)N1Cc1ccccc1)c1ccccc1,5.712213950000001
10708,HISPCP,C29 H29 N1 O4,COC(=O)C1=C2C=CC(C2C(N(C)C(=C1C(=O)OC)c1ccccc1)c1ccccc1)=C(C)C,5.33125455
10709,HISXEP,C21 H16 Br1 N3 O4 S1,CCc1nc2N(C)C(=O)N(C)C(=O)c2c2C(=O)C=C(Sc3ccccc3Br)C(=O)c12,5.613980850000001
10710,HISXIT,C21 H16 Cl1 N3 O4 S1,CCc1nc2N(C)C(=O)N(C)C(=O)c2c2C(=O)C=C(Sc3ccc(Cl)cc3)C(=O)c12,5.491801730000001
10711,HITJOM,C26 H16 N2 O1,O=CC1=CN(N=C1c1ccc2ccc3cccc4ccc1c2c34)c1ccccc1,5.47765181
10712,HITPOP,C34 H42 O4,CC12C3=CC=C4C=C5COC(=O)CCCCCCCCCCCCC(=O)OCC(=C3)C=C1C=CC(=C5)C24C,4.33776689
10713,HITREH,C16 H18 N2 O2,CN(C)c1ccc(cc1)C=[N+]([O-])c1ccccc1CO,5.86350925
10714,HITRIL,C28 H27 B1 N2 O2,CN(C)c1ccc(cc1)C=[N+]1O[B-](OCc2ccccc12)(c1ccccc1)c1ccccc1,5.292614390000001
10715,HITROR,C10 H12 N4,CN(C)c1nnc2cc(C)ccc2n1,5.76092233
10716,HITTOU,C18 H22 N2 S4,CCCCN1C=C2SC(SC2=C1)=C1SC2=CN(CCCC)C=C2S1,6.01643723
10717,HITTUA,C26 H38 N2 S4,CCCCCCCCN1C=C2SC(SC2=C1)=C1SC2=CN(CCCCCCCC)C=C2S1,5.993851790000001
10718,HITVAI,C34 H54 N2 S4,CCCCCCCCCCCCN1C=C2SC(SC2=C1)=C1SC2=CN(CCCCCCCCCCCC)C=C2S1,6.05779854
10719,HITVIQ,C41 H41 Cl1 N4 O1,CC(C)(C)C1CC(=CC=C2N(Cc3ccccc3)c3ccccc3C2(C)C)C(=C(C1)C=CC1=C(C#N)C(OC1(C)C)=C(C#N)C#N)Cl,3.69204073
10720,HITVOW,C24 H10 F6 N4 S4,FC(F)(F)c1ccc(cc1)C1=NC=C(S1)C1=NC2=C(S1)N=C(S2)C1=CN=C(S1)c1ccc(cc1)C(F)(F)F,5.2515252
10721,HITVUC,C24 H10 F6 N4 S4,FC(F)(F)c1ccc(cc1)C1=CN=C(S1)C1=NC2=C(S1)N=C(S2)C1=NC=C(S1)c1ccc(cc1)C(F)(F)F,5.08526364
10722,HITYIV,C14 H18 N2 O4,CCOC(=O)C1(O)C(C(C)N(O)C1=N)c1ccccc1,6.55903225
10723,HIVBIZ,C26 H16 Cl2 N2 O2,Clc1ccc(cc1)C(=O)c1ccccc1N=Nc1ccccc1C(=O)c1ccc(Cl)cc1,6.237937909999999
10724,HIVBUL,C15 H8 Cl1 N1 O5,OC1=C(C(=O)NC(=O)C#Cc2ccccc2)C(=O)OC(=C1)Cl,5.97289902
10726,HIVLUV,C23 H18 N2 O1 S1,CCN1c2ccccc2Sc2cc(C=CC3=Nc4ccccc4O3)ccc12,5.148938279999999
10727,HIVMAC,C23 H17 Br1 N2 O1 S1,CCN1c2ccc(Br)cc2Sc2cc(C=CC3=Nc4ccccc4O3)ccc12,5.21206869
10728,HIVMEF,C30 H18 F2 O4,OC1(c2cccc(F)c2)c2ccccc2C(=O)C1=C1C(=O)c2ccccc2C1(O)c1cccc(F)c1,5.81806624
10729,HIVMEG,C20 H17 N3,Cc1ccc(cc1)C1=CC=CC2=C(N=NN12)c1ccc(C)cc1,5.8305834700000005
10730,HIVMIJ,C32 H24 O6,COc1ccc(cc1)C1(O)c2ccccc2C(=O)C1=C1C(=O)c2ccccc2C1(O)c1ccc(OC)cc1,5.3002335799999996
10731,HIVMIK,C26 H19 N5,Cc1ccc(cc1)C1=Cc2nc3ccccc3nc2C2=C(N=NN12)c1ccc(C)cc1,5.0115207900000005
10732,HIVMUW,C36 H19 N7,c1ccc(cc1)C#Cc1nc2ccccc2nc1C#CC1=C2N(N=N1)C(=Cc1nc3ccccc3nc21)c1ccccc1,4.9707037099999996
10733,HIVNEG02,C23 H20 N4,CN(C)c1ccc(cc1)c1cc(nc(c1)c1ccccn1)c1ccccn1,5.97289902
10734,HIVROW,C35 H40 N4 O2,CCCCC(CC)COc1cc(C=C(C#N)c2ccc(NC)cc2)c(OC)cc1C=C(C#N)c1ccc(NC)cc1,4.55464163
10735,HIVRUA,C26 H23 N1 O5 S2,CCOC(=O)C=CCSC1=C2N3C=CC=CC3=C(C(=O)OCC)C2=C(S1)C(=O)c1ccccc1,5.02322168
10736,HIVRUC,C29 H24 O4,COc1ccc(cc1)C(c1ccc(OC)cc1)=C(c1ccccc1)c1ccc(cc1)C(O)=O,5.9092243799999995
10737,HIVSAH,C24 H20 Cl1 N1 O4 S2,CCOC(=O)C1=C2C=C(C)C=CN2C2=C(SCC(C)=O)SC(=C12)C(=O)c1ccc(Cl)cc1,4.9764181
10738,HIVSEL,C29 H22 Cl1 N1 O4 S2,CCOC(=O)C1=C2C=C(C)C=CN2C2=C(SCC(=O)c3ccccc3)SC(=C12)C(=O)c1ccc(Cl)cc1,5.0803655899999995
10739,HIVTIQ,C12 H13 N3 O2 S2,CCOC(=O)C1=C(C)N=C(NN=CC2=CC=CS2)S1,5.94704821
10740,HIVTOW,C12 H13 N3 O3 S1,CCOC(=O)C1=C(C)N=C(NN=CC2=CC=CO2)S1,6.086370489999999