,ID,formula,smiles,HOMO_LUMO_gap
3977,COXYEV,C11 H10 N2 O2,CC1=CC(=O)N(Nc2ccccc2)C1=O,5.60717801
3978,COXYUL,C12 H12 N2 O2,CC1=C(C)C(=O)N(Nc2ccccc2)C1=O,5.8645977
3979,COXZAS04,C12 H12 N2 O2,CC1=C(C)C(=O)N(N=C1O)c1ccccc1,6.00174308
3980,COYGAA,C23 H30 N2 O1,CC(C)C1=CC2(CC(C)(C)N=C2c2ccccc2N)C=C(C(C)C)C1=O,5.89344177
3981,COYGEE,C19 H22 N2 O1,CC1C2Nc3ccccc3C3=NC(C)(C)CC23C=C(C)C1=O,6.202018880000001
3982,COYGII,C23 H30 N2 O1,CC(C)C1C2Nc3ccccc3C3=NC(C)(C)CC23C=C(C(C)C)C1=O,6.159297
3983,COYGOO,C25 H34 N2 O1,CC(C)(C)C1C2Nc3ccccc3C3=NC(C)(C)CC23C=C(C1=O)C(C)(C)C,6.09317334
3984,COYHEG,C12 H12 O3,CC(=O)C=C(O)C=Cc1ccc(O)cc1,5.80037884
3985,COYHUV,C27 H20 O8,COC(=O)C12C(=O)c3ccccc3C(O)(C31OC(C)(C)C=C3)C13OC21C(=O)c1ccccc1C3=O,6.575359090000001
3986,COYKIM,C29 H21 N3 O6,CCOC(=O)C1=C(C(=O)OCC)C2(C(=O)c3ccccc3C2=O)C(C#N)(C#N)C2N1C=Cc1ccccc21,5.481733520000001
3987,COYKOR,C24 H23 N3 O1,CC1=CC2=C(C(=O)N1)C1=C(CCN2CCc2ccccc2)c2ccccc2N1,5.56445613
3988,COYKUY,C9 H11 I1 N2 O4 S1,OCC1OC(CC1O)N1C=C(I)C(=S)NC1=O,6.06296871
3989,COYNAF,C8 H6 N2 O2,NN1C(=O)c2ccccc2C1=O,6.618080960000001
3990,COYROX,C18 H14 N2 O2,OC(c1ccccc1)=C1CCN2C(=O)c3ccccc3N=C12,5.897523489999999
3991,COYTES,C28 H27 N1,Cc1cc(C)c(N=C2C(=C(c3ccccc3)C(=C2C)c2ccccc2)C)c(C)c1,5.442004900000001
3993,COYWUL,C16 H10 Cl2,Clc1cccc2c(C=C)c3cccc(Cl)c3cc12,5.247171379999999
3994,COYXAR,C19 H15 N1 O4,CCOC(=O)C(C(=O)c1ccccc1)=C1Nc2ccccc2C1=O,5.51493141
3995,COYXAS,C32 H22 Cl4,Clc1cccc2c(CCCCc3c4cccc(Cl)c4cc4c(Cl)cccc34)c3cccc(Cl)c3cc12,5.29615187
3996,COZGIK,C48 H54 N1 O1 P1 S1,CC(C)(C)S(=O)N(Cc1c2ccccc2cc2ccccc12)C(c1ccccc1P(C1CCCCC1)C1CCCCC1)c1cccc2ccccc12,5.41724254
3997,COZGOQ,C28 H40 O6,CC1CC(C)C2(O)OC3=CC(=O)C(=C(C4OC(CCC(C)C=C(C)C1)C(C)C(O)C4C)C3=C2)O,6.15875278
3998,COZKUA,C43 H44 B1 F2 N3 O1,CCC1=C(C)C2=C(c3ccccc3)C3=C(C)C(=C(C=CC4=Nc5ccc(C=Cc6ccc(OC)cc6)cc5C4(C)C)N3[B-](F)(F)[N+]2=C1C)CC,3.9312288
3999,COZLAG,C26 H21 Br1 O3,CCOC(=O)C1=CC(OC1c1cccc(Br)c1)=C(c1ccccc1)c1ccccc1,5.58132719
4000,COZLAH,C18 H16 N2 S1,Cc1ccc(cc1)N1C(=S)N=C(C)C=C1c1ccccc1,5.23492626
4001,COZLEL,C18 H16 N2 O1 S1,COc1ccc(cc1)N1C(=S)N=C(C)C=C1c1ccccc1,5.4833662
4002,COZMAH,C32 H32 Br1 N3 O6,CCOC(=O)C1=CC2C3C(C(=O)N(C3=O)c3ccc(Br)cc3)C31Nc1ccccc1C13CCN(C21)C(=O)OC(C)(C)C,6.10841172
4003,COZMUC,C16 H17 N1 O5,CCOC(=O)C1=C2C=CC(=CC=C2C(=C1N)C(=O)OCC)O,5.458059609999999
4005,COZPEO,C20 H15 N1 O2,COC1=CC2=C(N3C=CC=CC3=C2C=C1)C(=O)c1ccccc1,5.68799582
4006,COZQAL,C24 H20 N2,Cc1c2ccncc2c(C)c2c3ccccc3N(Cc3ccccc3)c12,5.78622892
4007,COZTES,C19 H21 N1 O1 S1,CC1=CSC(=C1)C(=O)C=Cc1ccc(cc1)N1CCCCC1,5.448263509999999
4008,COZTIW,C18 H19 N1 O1 S1,O=C(C=Cc1ccc(cc1)N1CCCCC1)C1=CC=CS1,5.32336325
4009,COZTOC,C18 H19 N1 O1 S1,O=C(C=Cc1ccc(cc1)N1CCCCC1)C1=CSC=C1,5.49697189
4010,COZTUI,C18 H18 Cl1 N1 O1 S1,ClC1=CC=C(S1)C(=O)C=Cc1ccc(cc1)N1CCCCC1,5.57398011
4011,COZVOF,C29 H23 N1 O4,COc1cc2nc(c3COc4ccc5ccccc5c4c3c2c(OC)c1OC)c1ccccc1,5.68445833
4012,CPATHP,C12 H8 Cl2 N2 S3,Clc1ccc(SN=S=NSc2ccc(Cl)cc2)cc1,4.997915089999999
4013,CPGXMR20,C12 H12 Cl1 N1 O2 S1,Clc1ccc(cc1)C(=O)C(=S)N1CCOCC1,6.10324155
4014,CPHTCI10,C12 H8 Cl1 N1 O2 S2,Clc1ccccc1N1C(=O)C2=C(SCCS2)C1=O,5.94242226
4015,CPMXZT,C17 H14 Cl2 N2 O1,CC1(C)[N+]([N-]C1=O)=C(c1ccc(Cl)cc1)c1ccc(Cl)cc1,5.86786307
4016,CPQZOL,C19 H18 N2 O2,COc1ccc2N(CC3CC3)C(=O)N=C(c3ccccc3)c2c1,5.86949576
4017,CPTYBN10,C20 H12 N2 S2,N#CC(C#N)=C(C=C1SSC(=C1)c1ccccc1)c1ccccc1,4.53260041
4018,CPYANN,C17 H12,C1C23C4=CC=CC=C2C=C2C=CC=CC(=C4)C132,4.82212955
4019,CPYPTZ,C18 H18 Cl1 N3 S1,CCN(CC)C1=NC(=C(S1)c1ccc(Cl)cn1)c1ccccc1,5.91412243
4020,CQAZOL10,C21 H12 N4,c1ccc2c(c1)N=C1N3C2=Nc2ccccc2C3=Nc2ccccc12,5.8624208
4021,CQUYAC,C21 H25 N5 O1,CCN(CC)C(=O)C(C#N)=C1Nc2ccccc2C(=C1C#N)N(CC)CC,5.2697568299999995
4022,CRETAL01,C20 H28 O1,CC(=CC=O)C=CC=C(C)C=CC1=C(C)CCCC1(C)C,5.3870379
4023,CROCAL,C20 H24 O2,CC(C=O)=CC=CC(C)=CC=CC=C(C)C=CC=C(C)C=O,4.26320769
4024,CSANDR,C27 H31 Br1 O3,COC1=CC=C2CC(=C1)CCC1C2CCC2(C)C(CCC12)OC(=O)c1ccc(Br)cc1,6.071404230000001
4025,CSTEPH,C7 H15 P1 S2,CC[P+](CC)(CC)C(=S)[S-],5.68663525
4026,CUBBAE,C22 H20 F3 N1 O4,CC(C)N1C(=O)C(C(C=Cc2ccc3OCOc3c2)C21C=CC(=O)C=C2)C(F)(F)F,5.83248828
4027,CUBJIT,C24 H25 N1 O3,COc1ccc(cc1)C=C1C2CCC(N2C)C(=Cc2ccc(OC)cc2)C1=O,5.84554974
4028,CUBJOZ,C25 H22 N2 O3,CN1CC(C2=CC=CO2)C2(Cc3ccccc3C2=O)C21C(=O)N(C)c1ccccc21,6.46433663
4029,CUBJUF,C32 H33 N3 O4,COc1ccc(cc1)C=C1CN(C)CC2(C(CN(C)C32C(=O)Nc2ccccc32)c2ccc(OC)cc2)C1=O,6.22623701
4030,CUBKIV,C31 H22 O1,Cc1cc2C(=O)c3c4ccccc4c(c4ccccc4)c(c4ccccc4)c3c2cc1C,5.28989325
4031,CUBMIW,C34 H30 N2 O1,Cc1ccc(cc1)C=C1CCC2(C(c3ccc(C)cc3)C(=NN2c2ccccc2)c2ccccc2)C1=O,4.9206347599999996
4032,CUBNUJ,C15 H17 N1 O1,O=CC=Cc1cc2CCCN3CCCc(c1)c23,5.59302808
4033,CUBPAQ,C6 H8 N2 O4 S2,OC(=O)CNC(=S)C(=S)NCC(O)=O,6.18950164
4034,CUBQAR,C8 H12 N2 O4 S2,CC(NC(=S)C(=S)NC(C)C(O)=O)C(O)=O,6.05779854
4035,CUBRAV,C26 H16 Cl1 N1,Clc1ccc2c(c1)N1c3ccccc3c3ccccc3C1=C2c1ccccc1,5.76908575
4036,CUBTOK,C32 H25 N1 O1,COc1ccc(cc1)C1=C2c3ccccc3N(C)C(=C2C(=C1)c1ccccc1)c1ccccc1,5.08499152
4037,CUBTUR,C24 H18 Br2 N2,CC(=Nc1cccc2cccc(Br)c12)C(C)=Nc1cccc2cccc(Br)c12,5.814800870000001
4038,CUBVAZ,C24 H18 I2 N2,CC(=Nc1cccc2cccc(I)c12)C(C)=Nc1cccc2cccc(I)c12,5.81398453
4039,CUCBAE,C28 H32 N4,CC(C)(C)C1=CC2C3=C(C=C(C3=CC1C(C#N)(C#N)C2(C#N)C#N)C(C)(C)C)C(C)(C)C,5.99140276
4040,CUCBEI,C22 H32 O1,CC(C)(C)C1=CC=C2C(=CC(=O)C2(C=C1)C(C)(C)C)C(C)(C)C,5.89072064
4041,CUCCEI,C24 H16 O4,CC(C)=CC1=C2C(=O)c3ccccc3C(=O)c3c(O)c4ccccc4c(O1)c23,5.281729840000001
4042,CUCDIO,C35 H46 N2 O4 S1,CCCCCCCc1ccc(cc1)S(=O)(=O)C1C2CCC(C1NCc1ccc3ccccc3c1)N2C(=O)OC(C)(C)C,5.86160445
4043,CUCJIT,C22 H16,c1ccc2c(c1)cccc2C=Cc1cccc2ccccc12,5.425678059999999
4044,CUCPOH,C36 H35 N3 O5,CCOC(=O)C12C(CC(N1c1ccc(OC)cc1)c1ccc(cc1)C#N)C(Nc1ccc(OC)cc21)c1ccc(OC)cc1,6.08120033
4045,CUCPUN,C25 H18 Cl1 F3 O2 S1,COc1ccc(cc1)C(Cl)=C1c2ccccc2C(=C1c1ccc(OC)cc1)SC(F)(F)F,5.4493519699999995
4046,CUCQAU,C25 H16 Cl1 F3 O2 S1,COC(=O)c1ccc(cc1)C(Cl)=C1c2ccccc2C(=C1c1ccccc1)SC(F)(F)F,5.48962482
4047,CUCQUO,C36 H32 N4 O4,CCOC(=O)C12C(CC(N1c1ccc(OC)cc1)c1ccc(cc1)C#N)C(Nc1ccc(OC)cc21)c1ccc(cc1)C#N,5.81833835
4048,CUCSIF,C20 H15 N3 O2,COc1cc(C#CC2=NC=CN2)c(cc1OC)C#Cc1ccccn1,5.39710611
4049,CUCSUR,C26 H27 N3 O1 S1,CCCCN1C(Sc2ccccc12)=CC=CC1=CC(C=C(O1)C(C)(C)C)=C(C#N)C#N,4.6131461
4050,CUCVUU,C18 H19 N3 S1,C[N+]1=NN(C(=C1c1ccccc1)[S-])c1c(C)cc(C)cc1C,5.52336694
4051,CUCWAB,C18 H19 N3 Se1,C[N+]1=NN(C(=C1c1ccccc1)[Se-])c1c(C)cc(C)cc1C,5.24172911
4052,CUCWUV,C16 H15 N3 Se1,C[N+]1=NN(Cc2ccccc2)C(=C1c1ccccc1)[Se-],5.346765049999999
4053,CUCYAD,C20 H15 N1 O1 S1,Cc1ccc(Nc2cccc3Sc4ccccc4C(=O)c23)cc1,5.38213985
4054,CUCYEH,C33 H21 N1 O2 S2,Cc1ccc(cc1)N(c1cccc2Sc3ccccc3C(=O)c12)c1cccc2Sc3ccccc3C(=O)c12,5.1097538799999995
4055,CUCYIL,C23 H15 N1 O1 S1,O=C1c2ccccc2Sc2cccc(Nc3cccc4ccccc34)c12,5.44581449
4056,CUCYOR,C20 H15 N1 O2 S1,COc1ccc(Nc2cccc3Sc4ccccc4C(=O)c23)cc1,5.67956028
4057,CUCYUX,C33 H21 N1 O3 S2,COc1ccc(cc1)N(c1cccc2Sc3ccccc3C(=O)c12)c1cccc2Sc3ccccc3C(=O)c12,5.06539932
4058,CUCZAE,C21 H13 N1 O1 S2,O=C1c2ccccc2Sc2cccc(NC3=Cc4ccccc4S3)c12,4.67355538
4059,CUCZEI,C21 H11 N1 S2,S1c2ccccc2c2c3c1cccc3nc1Sc3ccccc3c21,5.00036412
4060,CUCZIM,C21 H11 N1 O1 S1,O1c2ccccc2c2c1nc1cccc3Sc4ccccc4c2c13,5.14023064
4061,CUCZOR,C17 H12 O1,COc1ccc2ccc3cccc4ccc1c2c34,5.53697263
4062,CUCZOS,C34 H12 F10 N6,Fc1c(F)c(F)c(C(C2=CC=CN2)C2=CC=C(N2)C2=C(C#N)C3=CC=C4N3C2=NC2=CC=NC2=C4c2c(F)c(F)c(F)c(F)c2F)c(F)c1F,4.15191314
4063,CUCZUX,C12 H15 N3 O2 S1,CCNC(=S)NN=C(C)c1ccc2OCOc2c1,6.12501066
4064,CUDBAG,C22 H19 N1 O4 S1,CCOC(=O)C1=C(N)C(=C2C=CC(=CC=C12)C#CC1=CSC=C1)C(=O)OCC,4.916553049999999
4065,CUDDEK,C41 H31 O4 P1,COC(=O)C1=C(C2C=C(c3ccccc3)P(=C1C(=O)OC)(c1ccccc1)C12c2ccccc2c2ccccc12)c1ccccc1,5.30513163
4066,CUDGEP,C23 H26 N2 O1,CC(C)c1ccc(NC(C)(C)c2cccc(n2)c2ccccc2O)cc1,6.0088180499999995
4067,CUDHAN,C20 H13 Cl1 S1,Clc1ccc(Sc2c3ccccc3cc3ccccc23)cc1,5.4224127
4068,CUDMEW,C19 H12 N2 S1,N1c2ccccc2N=C2c3ccccc3Sc3cccc1c23,5.9187483599999995
4069,CUDMIA,C19 H14 N2 O1 S1,Nc1ccccc1Nc1cccc2Sc3ccccc3C(=O)c12,5.16825836
4070,CUDMOG,C18 H13 N3 O1 S1,Nc1cccnc1Nc1cccc2Sc3ccccc3C(=O)c12,4.9905680100000005
4071,CUDMUM,C20 H12 F3 N1 O3 S2,FC(F)(F)S(=O)(=O)c1ccc(Nc2cccc3Sc4ccccc4C(=O)c23)cc1,5.63194036
4072,CUDQID,C18 H14 N4,c1ccc(cc1)N=Nc1ccccc1N=Nc1ccccc1,5.89616292
4073,CUDSEC,C6 H10 N2 O2,CC1=[NH+]CCC(N1)C(=O)[O-],6.1484124499999995
4074,CUDSOL,C18 H15 N1 O6,CCOC(=O)C12C(CNC3=C1C(=O)c1ccccc1C3=O)COC2=O,5.59520499
4075,CUDTOM,C20 H16 N2 O2,Oc1cc(C=Nc2ccccc2)c(O)cc1C=Nc1ccccc1,5.61044337
4076,CUDVOM,C20 H19 N1 O2,CN1c2ccccc2C(=O)c2c(C)cc3OC(C)(C)C=Cc3c12,6.12473855
4077,CUDVUS,C15 H12 O7,COc1c2OCOc2c(O)c2C(=O)C3=C(COC3C)C(=O)c12,5.45588271
4078,CUDWOQ,C20 H12 N2 O2 S2,Oc1ccccc1C1=Nc2cc3SC(=Nc3cc2S1)c1ccccc1O,5.7780655
4079,CUFCEO,C14 H16 O2,CC1(C)C(=C)C2=C(C(=C)C(C)(C)C2=O)C1=O,6.016437229999999
4080,CUFCOY,C28 H30 O4,CC1(C)C(=C)C2=C(C1=O)C(=CC=C1C3=C(C(=C)C(C)(C)C3=O)C(=O)C1(C)C)C(C)(C)C2=O,4.397087710000001
4081,CUFCUE,C28 H30 O4,CC(C)=C1C(C=C2C3=C(C(=C)C(C)(C)C3=O)C(=O)C2(C)C)C(=O)C2=C1C(=O)C(C)(C)C2=C,5.52826499
4082,CUFGAL,C15 H9 N1 O1 S2,[O-]C1=C(SC2=[N+]1c1ccccc1S2)c1ccccc1,4.953288430000001
4083,CUFGUF,C12 H8 N2 O2,O=C1[N+]2=CC=CN2C(=C1c1ccccc1)[O-],4.78430572
4084,CUFJOF,C25 H17 N3 O2,COc1ccc(cc1)C1N2C(=O)c3ccccc3N=C2c2nc3ccccc3cc12,6.00691325
4085,CUFJUL,C22 H23 N1 O6,CCC(=O)C1=C(CC)N2c3ccc(OC)cc3C(=C2C=C1C(=O)OC)C(=O)OC,5.35438423
4086,CUFKAQ,C48 H40 N2 O4,COC(=O)C1=C(N(C(C2N(c3ccc(C)cc3)C(=C(C(=O)OC)c3ccccc23)c2ccccc2)c2ccccc12)c1ccc(C)cc1)c1ccccc1,5.86568616
4087,CUFKEU,C28 H36 N6 O2,CC(C)CN(C(=O)Nc1ccccc1C)c1ccc(nn1)N(CC(C)C)C(=O)Nc1ccccc1C,5.7807866400000005
4088,CUFKUL,C21 H20 N2 O2,CC1CCN(CC1)c1ccc2C(=O)N(CC#C)C(=O)c3cccc1c23,5.64282492
4089,CUFLOH,C43 H37 N3 O6,CCN(CC)c1ccc2c(Oc3cc4Oc5cc(ccc5C(C#N)(c5ccccc5C(O)=O)c4cc3C32OC(=O)c2ccccc32)N(CC)CC)c1,6.03847846
4090,CUFNIB,C51 H40 O3 S2,CCOC1Oc2c(O1)c1ccc2C#Cc2ccc(SC(C)(C)C)cc2C#Cc2cccc(c2)C#Cc2cccc(c2)C#Cc2cc(SC(C)(C)C)ccc2C#C1,5.468399929999999
4091,CUFTEC01,C16 H11 N1 O1,CN1c2ccccc2C2=C1c1ccccc1C2=O,5.606361660000001
4092,CUFZAE,C3 H8 N1 O5 P1,[NH3+]C(CP(O)(=O)[O-])C(O)=O,6.700531450000001
4093,CUGBEM,C16 H13 N5 O2,CC(C)[N+]1=NOC(=C1C=C(C#N)C#N)[N-]C(=O)c1ccccc1,5.23737528
4094,CUGBIP,C8 H6 N2 O2,O=C1C=C([O-])[NH+]=C2C=CC=CN12,5.09587608
4095,CUGBIQ,C13 H15 N3 O2 S1,CSC1=C(ON=[N+]1C(C)C)[N-]C(=O)c1ccccc1,6.21861783
4096,CUGBUC,C24 H15 N3 S4,S1C=CC=C1c1cc(nc(n1)N1C(=CC=C1C1=CC=CS1)C1=CC=CS1)C1=CC=CS1,4.58103668
4097,CUGFAM,C22 H26 N1 O6 P1,CCOP(=O)(OCC)C(Nc1ccc(OC)cc1)C1=COc2ccc(C)cc2C1=O,5.71792834
4098,CUGFIU,C17 H17 Cl1 N1 O5 P1,ClCCOP1(=O)OC2=C(NC31CCCC3)C(=O)c1ccccc1C2=O,5.31547196
4099,CUGJOG,C16 H16 N2 O3,O=C1CC2(CCCC2N1)CN1C(=O)c2ccccc2C1=O,6.75196098
4100,CUGMEY,C10 H10 N2 O2 S4,CCN1C(=O)SC(C1=S)=C1SC(=O)N(CC)C1=S,4.9549211
4101,CUGMOJ,C32 H22 S2,CSc1ccc(cc1)C#Cc1c2ccccc2c(C#Cc2ccc(SC)cc2)c2ccccc12,4.5013073100000005
4102,CUGMUP,C34 H22 O2 S2,CC(=O)Sc1ccc(cc1)C#Cc1c2ccccc2c(C#Cc2ccc(SC(C)=O)cc2)c2ccccc12,4.42375487
4104,CUGNEA,C38 H34 S2,CC(C)(C)Sc1ccc(cc1)C#Cc1cccc2cc3c(cccc3C#Cc3ccc(SC(C)(C)C)cc3)cc12,5.10050201
4105,CUGPAX,C14 H13 N1 O4,CC1=CC(=C(C(C)=Nc2ccc(O)cc2)C(=O)O1)O,5.41615408
4106,CUGPEB,C33 H26 F2 N2 O2,Fc1ccc(c(F)c1)c1ccc(cc1)C(=O)C1C(C2CCCN2C21C(=O)Nc1ccccc21)c1ccccc1,6.58569941
4107,CUGWOT,C14 H8 F6 N2 S1,FC(F)(F)c1cc(NC(=S)c2ccccn2)cc(c1)C(F)(F)F,6.041743820000001
4108,CUGXEI,C29 H27 N3 O2 S3,Cc1ccc(c(C)c1)S(=O)(=O)NC(CCSc1ccccc1)C1CSc2ccccc2C1=C(C#N)C#N,5.35384
4109,CUGXIM,C31 H21 Cl1 N6,Clc1ccc(cc1)C(C1=C2C=CC=CN2C(=N1)c1ccccn1)C1=C2C=CC=CN2C(=N1)c1ccccn1,5.81507299
4110,CUGZUB,C37 H36 O3 S1,CCCc1ccc(cc1)c1ccc(cc1)C1=C2OCC(CO)OC2=C(S1)c1ccc(cc1)c1ccc(CCC)cc1,5.48472677
4111,CUHBAK,C23 H20 O5 S1,CC(=O)c1ccc(cc1)C1=C2OCC(CO)OC2=C(S1)c1ccc(cc1)C(C)=O,5.35275156
4112,CUHBEO,C39 H38 O5 S1,CCCc1ccc(cc1)c1ccc(cc1)C1=C2OCC(COCC(O)=O)OC2=C(S1)c1ccc(cc1)c1ccc(CCC)cc1,5.4107118100000005
4113,CUHBIS,C43 H30,CCc1c2c3cccc2c(c2cccc(C#Cc4cccc5cc6cccc(C#C3)c6cc45)c12)c1c(C)cc(C)cc1C,4.40225787
4114,CUHCIU,C22 H16 O3,C=CCOC1=C(Oc2cc3ccccc3cc2C1=O)c1ccccc1,5.767997290000001
4115,CUHHIX,C23 H20 N2 O3 S1,CCOC(=O)C1=C(C)N=C2SC(=Cc3ccccc3)C(=O)N2C1c1ccccc1,5.65207679
4116,CUHHOD,C20 H20 N2 O5 S1,CC(=O)OCCN1CCOC(=O)c2cc(NC(=O)C=CC3=CC=CS3)ccc12,5.6297634500000004
4117,CUHNEY23,C17 H17 Cl1 N6 O3,CN1CCN(CC1)C(=O)OC1N(C(=O)c2nccnc12)c1ccc(Cl)cn1,6.2474619
4118,CUHNOJ,C15 H20 N2 S1,CC(C)N1C=C(C(=S)NC1(C)C)c1ccccc1,6.17235847
4119,CUHQAZ,C29 H29 Br1 N2 O3,COc1nc2ccc(Br)cc2cc1C(c1ccccc1)C1(O)C(COc2ccccc12)CN(C)C,5.5995588099999996
4120,CUHQED,C30 H30 Br1 Cl1 N2 O3,COc1nc2ccc(Br)cc2cc1C(c1ccccc1)C1(O)C(CCOc2ccc(Cl)cc12)CN(C)C,6.42651281
4121,CUHQIH,C31 H33 Cl1 N2 O4,COc1ccc2c(OCCC(CN(C)C)C2(O)C(c2ccccc2)c2cc3cc(Cl)ccc3nc2OC)c1,6.11358188
4122,CUHRAY01,C27 H28 O10,CC1OC(CC(OC(C)=O)C1OC(C)=O)OC1CCCc2c(O)c3C(=O)c4ccccc4Oc3c(O)c12,6.10052041
4123,CUHRII,C26 H20 N2 O4,CC(C)N1C(=O)c2cc3ccc4c5C(=O)N(C(C)C)C(=O)c5cc5ccc(c2C1=O)c3c45,5.18376885
4124,CUHXOU,C42 H38 N4 O4,COc1ccc(cc1)N(c1ccc(OC)cc1)c1ccc(cc1)C=NN=Cc1ccc(cc1)N(c1ccc(OC)cc1)c1ccc(OC)cc1,5.74377916
4125,CUHXUA,C41 H37 N3 O4,COc1ccc(cc1)N(c1ccc(OC)cc1)c1ccc(cc1)C=Nc1ccc(cc1)N(c1ccc(OC)cc1)c1ccc(OC)cc1,6.39358703
4126,CUHXUB,C31 H23 N1 O3 S1,COc1ccc(cc1)c1ccc(cc1)S(=O)(=O)c1ccccc1N1c2ccccc2c2ccccc12,5.84772665
4127,CUJTUW,C20 H16,Cc1ccc2cc3c(ccc4cc(C)ccc34)cc2c1,5.683369890000001
4128,CUJYIR,C18 H10 Cl2 N6 S2,Clc1ccc(Sc2nncc(n2)c2cnnc(Sc3ccc(Cl)cc3)n2)cc1,5.57887816
4129,CUKCER,C8 H12 N6 O2,Nc1nc(nc(N)c1N=O)N1CCOCC1,6.60284258
4130,CUKFAQ,C29 H33 N3 O2,CCOC1=Nc2c(OC31N(C)c1ccccc1C3(C)C)cc(N1CCCCC1)c1ccccc21,6.09154066
4131,CUKHAU,C20 H21 B1 F2 O3,COc1cccc(c1)C1=[O+][B-](F)(F)OC(=C1)c1ccc(cc1)C(C)(C)C,5.776704930000001
4132,CUKPOO,C22 H20 Cl1 N1 O2,CN1C(=C(CC(=C1c1ccccc1)C(=O)c1ccccc1Cl)C(C)=O)C,5.96527983
4133,CUKPOQ,C22 H16,c1ccc(cc1)C=Cc1ccc2cc3ccccc3cc2c1,5.266763579999999
4134,CUKQAD,C28 H31 N1 O6,COC(=O)c1cc(cc(C(=O)OC)c1N(c1ccc(OC)cc1)c1ccc(OC)cc1)C(C)(C)C,6.023784310000001
4135,CUKQUV,C20 H14 O2 S1,COc1ccc2cc(ccc2c1)C1=CC(=O)c2ccccc2S1,5.89180909
4136,CUKQUX,C23 H27 N3 O2 S2,CCN(CC)C(=O)c1cc(cc(n1)C(=O)N(CC)CC)C1=CC=C(S1)C1=CC=CS1,5.6700363000000005
4137,CUKTAG,C24 H29 B1 F2 O3,COc1cccc(c1)C1=[O+][B-](F)(F)OC(=C1)c1cc(cc(c1)C(C)(C)C)C(C)(C)C,5.97616438
4138,CUKTUA,C18 H16 N4 O1,CC(=O)C(Nc1ccccc1)=NNc1cccc2cccnc12,5.68745159
4139,CUKYUC,C37 H30 O8 S2,COc1ccc2Sc3ccc4cc3C(=C3c5cc(OC)ccc5Sc5ccc(cc35)C(=O)OCC3OC(C)(C)OC3COC4=O)c2c1,5.731806139999999
4140,CULWAH,C12 H11 N1 O3,CCOC(=O)C1=C(N)C(=O)c2ccccc12,5.228395519999999
4141,CUMBIY,C37 H22 N2 O1,O=C1c2cc(ccc2c2ccc(cc12)N1c2ccccc2c2ccccc12)N1c2ccccc2c2ccccc12,4.92390013
4142,CUMDUJ,C29 H22 O5 S1,COc1ccc(cc1)C(OS(=O)(=O)c1ccc(C)cc1)=C1c2ccccc2C(=O)c2ccccc12,5.765548259999999
4143,CUMKAX,C39 H39 N3 O4,CCOC(=O)C1=CN(c2ccccc2)C(=C(C)C(=O)OC)C21N(Cc1ccc(C)cc1)c1ccccc1N2Cc1ccc(C)cc1,5.50567954
4144,CUMKAY,C26 H16 O2,O1C(=Cc2cc3cc4OC(=Cc4cc3cc12)c1ccccc1)c1ccccc1,5.38458887
4145,CUMKEB,C39 H37 Br2 N3 O4,CCC1C(=CC(=O)OC)N(c2ccccc2)C(=C(C)C(=O)OC)C21N(Cc1ccc(Br)cc1)c1ccccc1N2Cc1ccc(Br)cc1,5.69588712
4146,CUMKIF,C44 H39 Br2 N3 O4,COC(=O)C(C)=C1N(C(=C(C(=O)OC)C21N(Cc1ccc(Br)cc1)c1ccccc1N2Cc1ccc(Br)cc1)CCc1ccccc1)c1ccccc1,5.383228310000001
4147,CUMKOL,C39 H38 N4 O5,CCC=C1C(C(=O)OC)C2(N(N=C(N2c2ccccc2)c2ccccc2)c2ccccc2)C(N1c1ccc(OC)cc1)=C(C)C(=O)OC,5.901605190000001
4148,CUMKUR,C39 H38 N4 O5,CCCC1=C(C(=O)OC)C2(N(N=C(N2c2ccccc2)c2ccccc2)c2ccccc2)C(N1c1ccc(OC)cc1)=C(C)C(=O)OC,5.501869940000001
4149,CUMLAY,C24 H28 O5,COC1C2CC3C(C)(C)OC(CC=C(C)C)(C2=O)C23Oc3ccccc3C(=O)C12,6.1946718
4150,CUMLEC,C23 H24 O4,CC(C)=CCC12OC(C)(C)C3CC(C=C4C(=O)c5ccccc5OC134)C2=O,6.18106611
4151,CUMMAY,C37 H28 N2 O1,CC1=C(c2ccccc2)C(=C(c2ccccc2)C21OC(=NN2c1ccccc1)c1ccccc1)c1ccccc1,5.35057464
4152,CUMPEH,C26 H16 O2,O1C(=Cc2ccc3c4OC(=Cc4ccc3c12)c1ccccc1)c1ccccc1,5.58540889
4153,CUMPIM,C12 H11 N1 O1 S1,CC1=C(O)C(=S)C=CN1c1ccccc1,5.44173278
4154,CUMPOS,C13 H13 N1 O1 S1,CC1=C(O)C(=S)C=CN1Cc1ccccc1,5.781875090000001
4155,CUMQOT,C16 H13 N1 O1 S1,CC1=C(O)C(=S)C=CN1c1cccc2ccccc12,4.76416929
4156,CUMVIR,C27 H21 N1 O3,CCOC(=O)C1=C(C)ON=C1c1c2ccccc2c(c2ccccc2)c2ccccc12,5.408534889999999
4157,CUMWIS,C26 H21 F1 N2 O2 S1,CN1CC(c2cccc(F)c2)C2(CSc3ccccc3C2=O)C21C(=O)Nc1ccccc21,6.44392809
4158,CUMXEQ,C18 H16 N4,C(Nc1ccccc1)c1cccc(N=Nc2ccccc2)n1,4.625935460000001
4159,CUMXIU,C24 H26 N4,CC(C)c1cccc(C(C)C)c1N=Cc1cccc(N=Nc2ccccc2)n1,5.797385589999999
4160,CUNDAR,C24 H15 N5,c1ccc(cc1)C1=Cc2nc3ccccc3nc2C2=C(N=NN12)c1ccccc1,5.12199901
4161,CUNDEV,C29 H32 N8 O2,CN1C(=O)N(C)c2nc3c(C=C(N4N=NC(=C34)c3ccccc3)C3(CCCCC3)N3CCCCC3)nc2C1=O,5.152747870000002
4162,CUNDIA,C16 H15 N3 O2,CCOC(=O)C1=C(C)N(c2ncccn2)c2ccccc12,6.18433148
4163,CUNDIZ,C24 H16 N4 O2,CN1C(=O)N(C)c2nc(C#Cc3ccccc3)c(nc2C1=O)C#Cc1ccccc1,5.5639119
4164,CUNHID,C42 H30 N4,C(N1C=CC(=N1)c1c2ccccc2cc2ccccc12)c1ccc(CN2C=CC(=N2)c2c3ccccc3cc3ccccc23)cc1,5.458059609999999
4165,CUNJAX,C42 H30 N4,C(N1C=CC(=N1)c1c2ccccc2cc2ccccc12)c1ccc(CN2N=CC=C2c2c3ccccc3cc3ccccc23)cc1,5.39792245
4166,CUNJEB,C40 H26 N4,c1ccc2c(c1)cc1ccccc1c2C1=NN(C=C1)c1ccc(cc1)N1C=CC(=N1)c1c2ccccc2cc2ccccc12,5.40962334
4167,CUNKOM,C13 H12 N2 O2,Cc1ccccc1Nc1ncccc1C(O)=O,5.66595459
4168,CUNKUU,C16 H19 Cl1 N6 O4 S1,COc1nc(C)nc(NC(=O)NS(=O)(=O)c2cc(ccc2Cl)N(C)CC=C)n1,6.30487791
4169,CUNQAF,C58 H28,c1ccc2c(c1)c1cccc3c4cccc5c6ccccc6c6c(c45)c(c13)c2c1c2c3ccccc3c3cccc4c5cccc7c8ccccc8c(c(c57)c2c34)c61,4.47790552
4170,CUNWIR,C14 H16 Cl2 N2,CN(C)c1c(Cl)ccc2ccc(Cl)c(N(C)C)c12,6.05426106
4171,CUNWIS,C14 H8 N2 O4,OC(=O)c1ccc2C(=O)N(c3ccncc3)C(=O)c2c1,6.659714379999999
4172,CUNYES,C36 H37 O1 P1,Cc1ccc(cc1)C1=C(CC1P(c1c(C)cc(C)cc1C)c1c(C)cc(C)cc1C)C(=O)c1ccccc1,5.53887743
4173,CUNYIW,C39 H43 O1 P1,Cc1cc(C)c(P(C2CC(=C2c2ccccc2)C(=O)c2ccc(cc2)C(C)(C)C)c2c(C)cc(C)cc2C)c(C)c1,5.637382639999999
4174,CUNYOC,C35 H35 O1 P1,Cc1cc(C)c(P(C2=C(C(C2)C(=O)c2ccccc2)c2ccccc2)c2c(C)cc(C)cc2C)c(C)c1,5.804188440000001
4175,CUPBOF,C30 H21 N1 O1,Cc1ccc(cc1)C(=O)C1=C(c2ccccc2)C(=C2C=CC=CN12)C#Cc1ccccc1,5.74486761
4176,CUPGIF,C24 H18 N2,c1cc2cccc(C=Cc3ccncc3)c2c(c1)C=Cc1ccncc1,5.55819751
4177,CUPGOM,C32 H25 N3 O2,COc1ccc(cc1)N(c1ccc(OC)cc1)c1ccc(cc1)C#Cc1ccc(nc1)c1ccccn1,5.49533921
4178,CUPKOP,C26 H17 B1 F2 N2 O1,F[B-]1(F)N2C(=O)C(=C(C2=Cc2cccc[n+]12)c1cccc2ccccc12)c1ccccc1,5.3113902500000005
4179,CUPMIL,C22 H22 N4 O1 S1,O=C(C1=C(NN=C2CCCCC2)N=C(Nc2ccccc2)S1)c1ccccc1,5.79357599
4180,CUPVOA,C32 H25 N1 O4,COC(=O)C(=C)C(CC(c1ccccc1)=C1N=C(OC1=O)c1ccccc1)c1cccc2ccccc12,5.5579254
4181,CUPWUI,C20 H14 N2 S1,S=C(N1c2ccccc2N=C1c1ccccc1)c1ccccc1,5.48499889
4182,CUPXAP,C20 H16 N2 S2,S=C(Nc1ccccc1NC(=S)c1ccccc1)c1ccccc1,5.53506783
4183,CUQCEZ,C42 H28 N2 O6,COc1ccc(CN2C(=O)c3c4ccccc4c4c(ccc5c6C(=O)N(Cc7ccc(OC)cc7)C(=O)c6c6ccccc6c45)c3C2=O)cc1,5.1603670600000004
4184,CUQCID,C40 H24 N2 O4,O=C1N(Cc2ccccc2)C(=O)c2c3ccc4c5C(=O)N(Cc6ccccc6)C(=O)c5c5ccccc5c4c3c3ccccc3c12,5.243633899999999
4185,CUQCOJ,C40 H22 Br2 N2 O4,Brc1ccc(CN2C(=O)c3c4ccccc4c4c(ccc5c6C(=O)N(Cc7ccc(Br)cc7)C(=O)c6c6ccccc6c45)c3C2=O)cc1,5.26730781
4186,CUQCUP,C24 H14,c1ccc2c(c1)cc1cc3ccccc3c3c4ccccc4c2c13,4.14701509
4187,CUQDAW,C24 H13 F1,Fc1ccc2c(c1)c1c3ccccc3cc3cc4ccccc4c2c13,4.16388614
4188,CUQGOL,C50 H40 O4,COc1ccc(cc1)C1(c2ccc(OC)cc2)c2ccc3ccccc3c2c2c3ccccc3ccc2C1(c1ccc(OC)cc1)c1ccc(OC)cc1,5.83384884
4189,CUQKII,C21 H23 N3 O1,Cc1ccc(cc1)N=C1OCC2CCCN2C1=Nc1ccc(C)cc1,6.042015930000001
4190,CUQKOO,C21 H23 N3 O3,COc1ccc(cc1)N=C1OCC2CCCN2C1=Nc1ccc(OC)cc1,6.235761
4191,CUQLAE,C26 H16 N4 S2,S1C(=NC2=C1N=C(S2)c1ccc(cc1)c1ccncc1)c1ccc(cc1)c1ccncc1,5.3279892
4192,CUQWES,C27 H20 F6 N2 O2 S2,COc1ccc(cc1)C1=NC(=C(C)S1)C1=C(C2=C(C)SC(=N2)c2ccc(OC)cc2)C(F)(F)C(F)(F)C1(F)F,6.0403832600000005
4193,CUQZIX,C19 H16 O1,CC(C)(O)c1cc2c3ccccc3cc3cccc1c23,4.9712479300000005
4194,CURCAT,C6 H4 N2 S3,S1N=S=NSc2ccccc12,5.9595654399999995
4195,CURCAV,C28 H34 N2 O2,CCCCCCN1C(=O)C(c2ccccc12)=C1C(=O)N(CCCCCC)c2ccccc12,5.02376591
4196,CURCEX,C2 H4 N2 S3,C1CSN=S=NS1,5.883373560000001
4197,CURCEZ,C24 H30 N2 O2 S2,CCCCCCN1C(=O)C(C2=C1C=CS2)=C1C(=O)N(CCCCCC)C2=C1SC=C2,4.47817763
4198,CURCID,C32 H34 N2 O2 S2,CCCCCCN1C(=O)C(C2=C1c1ccccc1S2)=C1C(=O)N(CCCCCC)C2=C1Sc1ccccc21,4.0506867799999995