,ID,formula,smiles,HOMO_LUMO_gap
940,ASUBEW,C36 H38 S2,CCCCCCC1=CC=C(S1)c1cc2ccc3cc(cc4ccc(c1)c2c34)C1=CC=C(CCCCCC)S1,5.653165239999999
941,ASUJUU,C24 H23 N1 O4,COC(=O)C1(Cc2ccccc2N(C)C1c1cccc2ccccc12)C(=O)OC,5.93398673
942,ASULEF,C21 H22 N2 O3,COc1ccccc1C=CC1=NN(C(C1)c1ccccc1OC)C(C)=O,5.95793276
943,ASULIJ,C21 H20 N2 O5,COC(=O)C1=C2C=C(C=CN2C(=C1C(=O)OC)C(=O)c1ccccc1)N(C)C,5.82269217
945,ASUQEM,C12 H11 Br1 N2 O1,CN1C(=NC(=Cc2cccc(Br)c2)C1=O)C,5.777521269999999
946,ASUQIQ,C12 H11 Cl1 N2 O1,CN1C(=NC(=Cc2cccc(Cl)c2)C1=O)C,5.81969892
947,ASUQOW,C13 H14 N2 O2,CN1C(=NC(=Cc2cc(C)ccc2O)C1=O)C,5.63411727
948,ASUQUB,C15 H10 N4 O2,O=CC1=C(N=C2C=CC=CN12)C1=C([O-])[NH+]=C2C=CC=CN12,5.385405220000001
949,ASUQUC,C13 H14 N2 O1,CN1C(=NC(=Cc2cccc(C)c2)C1=O)C,5.77534436
950,ASURAJ,C12 H11 Cl1 N2 O2,CN1C(=NC(=Cc2cc(Cl)ccc2O)C1=O)C,5.658063289999999
951,ASUREM,C18 H10 Br1 N3 S1,BrC1=CC=C(N2c3ccccc3c3ccccc23)C2=NSN=C12,4.92907029
952,ASUREN,C12 H12 N2 O3,CN1C(=NC(=Cc2cc(O)ccc2O)C1=O)C,5.5794223899999995
953,ASURIQ,C30 H18 N4 S1,S1N=C2C(=CC=C(N3c4ccccc4c4ccccc34)C2=N1)N1c2ccccc2c2ccccc12,4.94267598
954,ASUROX,C15 H16 N2 O4,CCOC(=O)c1ccc(O)c(c1)C=C1N=C(C)N(C)C1=O,5.7269081
955,ASURUD,C12 H11 F1 N2 O1,CN1C(=NC(=Cc2cccc(F)c2)C1=O)C,5.84963145
956,ASUSAK,C12 H11 F1 N2 O2,CN1C(=NC(=Cc2cc(F)ccc2O)C1=O)C,5.64064801
958,ASUSEO,C16 H20 N2 O2,CN1C(=NC(=Cc2cc(ccc2O)C(C)(C)C)C1=O)C,5.6463624
961,ASUWEQ,C38 H40 N2 O2,CC(=NCCN=C(C)c1c2CCc3ccc(CCc(cc2)c1O)cc3)c1c2CCc3ccc(CCc(cc2)c1O)cc3,4.9511115100000005
962,ASUWIV,C21 H17 N1 O5,COC(=O)c1cc2C=C3N(CCc4ccccc34)C(=O)c2cc1C(=O)OC,5.818610459999999
963,ASUWOB01,C12 H12 O6,CC(=O)c1c(O)c(C(C)=O)c(O)c(C(C)=O)c1O,6.9078822
964,ASUXAN,C41 H22 F6 S2,FC1(F)C(=C(C2=C(SC(=C2)c2ccccc2)C#Cc2ccccc2)C(F)(F)C1(F)F)C1=C(SC(=C1)c1ccccc1)C#Cc1ccccc1,5.56608881
965,ASUXER,C41 H22 F6 S2,FC1(F)C2=C3C=C(SC3(C#Cc3ccccc3)C3(SC(=CC3=C2C(F)(F)C1(F)F)c1ccccc1)C#Cc1ccccc1)c1ccccc1,4.23028192
966,ASUXUH,C13 H10 Cl3 N1 O4,COc1ccc(cc1)C(=O)N(C)C1=C(Cl)C(Cl)(Cl)OC1=O,6.36909678
967,ASUZAP,C23 H17 F3 O6,COC(C(=O)Oc1cc(O)c2C(=O)C3=C(C)OCC3=Cc2c1)(c1ccccc1)C(F)(F)F,5.55738117
969,ATAFAE,C56 H34 N6,N1C2=Nc3ccc4ccccc4c3c3c(ccc4ccccc34)N=C3NC(=Nc4ccc5ccccc5c4c4c(ccc5ccccc45)N=C1c1ccccc21)c1ccccc31,5.116828849999999
970,ATAGOT,C23 H28 N2 O2 S3,C1COCCSCCN(CCSCCO1)c1ccc(cc1)C1=Nc2ccccc2S1,5.92663966
971,ATALOX,C31 H32 O8,CCOC(=O)C1=Cc2cc(OC)c(OC)cc2c2cc(OC)c(OC)cc2C1C(C(=O)OC)c1ccccc1,6.05045146
972,ATAPAM,C21 H22 O2 S2,COc1ccc(cc1)C=CC(=C1SCCCS1)c1ccc(OC)cc1,5.86187657
973,ATARIX,C36 H32 N6,Cc1cccc(n1)c1cccc(CNc2ccccc2c2ccccc2NCc2cccc(n2)c2cccc(C)n2)n1,5.8191547
975,ATAWAV,C21 H17 N1 O4,COc1ccc2N(c3ccc(cc3)C(O)=O)c3ccc(OC)cc3c2c1,5.77343956
976,ATAWEZ,C21 H16 F3 N1 O2,COc1ccc2N(c3ccc(OC)cc3c2c1)c1ccccc1C(F)(F)F,5.98650471
977,ATELAN,C35 H25 N1,Cc1ccc(cc1)N1c2ccccc2C2=C(c3ccccc3)c3ccccc3C2=C1c1ccccc1,5.4602365200000005
979,ATEQIZ,C25 H21 I1 O5,Cc1cc(O)c2C(=O)c3c(O)c(I)c(Oc4c(C)c(C)cc(C)c4C)cc3C(=O)c2c1,5.726091760000001
980,ATEQOF,C24 H19 I1 O5,Cc1cc(C)c(Oc2cc3C(=O)c4cc(C)cc(O)c4C(=O)c3c(O)c2I)c(C)c1,5.81588933
981,ATEVEB,C28 H16 F2,Fc1ccc(cc1)c1cc2c3cccc4cccc(c2cc1c1ccc(F)cc1)c34,5.8036442
982,ATEZEE,C20 H22 N2 O5,C1COCCOc2cccc3nc4c(OCCOCCO1)cccc4nc23,5.31329504
983,ATEZOO,C24 H28 N2 O4,C1COC2CCCCC2OCCCOc2cccc3nc4c(OC1)cccc4nc23,5.308124879999999
984,ATEZUV,C31 H32 B1 N1 O1,Cc1cc(C)c(c(C)c1)[B-]1(OC(=Cc2[nH+]cccc2)c2ccccc12)c1c(C)cc(C)cc1C,4.71736571
985,ATIBOW,C17 H14 Cl1 N3,Cc1ccc(NN=Cc2cc3ccccc3nc2Cl)cc1,5.45397791
986,ATICAJ,C16 H11 N3,c1ccc(cc1)N1N=Cc2cc3ccccc3nc12,5.67384589
987,ATICEN,C17 H13 N3,Cc1ccc2nc3N(N=Cc3cc2c1)c1ccccc1,5.64853931
988,ATIJOE,C36 H34 Cl1 N5 O2 S1,CCN(CC)c1ccc2c(Oc3cc(ccc3C32N(C(=O)c2ccccc32)C2=NN=C(S2)c2ccc(Cl)cc2)N(CC)CC)c1,5.6602402000000005
989,ATINIC,C34 H46 N6 O2,CCCN(CCC)c1ccc(C=NC(C#N)=C(N=Cc2ccc(cc2OCC)N(CCC)CCC)C#N)c(OCC)c1,4.39599925
990,ATINUO,C38 H54 N6 O2,CCCCOc1cc(ccc1C=NC(C#N)=C(N=Cc1ccc(cc1OCCCC)N(CCC)CCC)C#N)N(CCC)CCC,4.361440799999999
991,ATISIH,C17 H15 F1 N2,CN(C)c1ccc(cc1)C=C(C#N)c1ccc(F)cc1,5.35193521
992,ATISON,C18 H15 N1 O1,CN1C=CC=C1C=CC(=O)c1ccc2ccccc2c1,5.715751429999999
993,ATITII,C48 H39 N3 S2,CCCCN1C2=C(SC(=C2)c2ccc(cc2)N(c2ccccc2)c2ccccc2)C2=C1C=C(S2)c1ccc(cc1)N(c1ccccc1)c1ccccc1,4.93968273
994,ATIWEF,C31 H30 N2 O2,Cc1cc(Cc2cc(C)c(N=Cc3ccccc3O)c(C)c2)cc(C)c1N=Cc1ccccc1O,6.27875498
995,ATIXUW,C27 H30 N4 O1,CCN(CC)c1ccc(cc1)c1cc(nc(N2CCCC2)c1C#N)c1ccc(OC)cc1,5.706771670000001
996,ATODIX,C27 H12 F5 O2 P1 S1,Fc1c(F)c(F)c(c(F)c1F)C(=O)c1ccc2c(SC3=C2P(=O)(c2ccccc2)c2ccccc32)c1,5.7707184300000005
997,ATOJEA,C15 H16 N8 O1,Cc1ccc(cc1)C(=O)N1CCN(CC1)C1=NN2C=NN=C2N=N1,5.882557219999999
998,ATOMAZ,C14 H8 O6 S2,COC(=O)C1=CSC2=C1C(=O)C1=C(C2=O)C(=CS1)C(=O)OC,6.243380179999999
999,ATOMED,C16 H14 O6 S2,CCOC(=O)C1=CSc2c(O)c3c(SC=C3C(=O)OCC)c(O)c12,5.8450055
1000,ATOMIH,C44 H32 N2 O2,COc1ccc(cc1)N=C(c1ccccc1)c1c2ccccc2c2nc3ccc(OC)cc3c(c3ccccc3)c2c1c1ccccc1,5.65942386
1001,ATOMOL,C4 H2 S5,S=C1SC2=C(SCS2)S1,5.67602281
1002,ATOQAC,C19 H19 N1 O3,CCN(CC)c1ccc2C=C(C(=O)Oc2c1)c1ccc(O)cc1,5.74160225
1003,ATOQEG,C19 H18 Br1 N1 O2,CCN(CC)c1ccc2C=C(C(=O)Oc2c1)c1ccc(Br)cc1,5.48799214
1004,ATOVUC,C29 H30 N4 O1,CCCCC1=C(CCC)C=C(N1)C1=C(N(C(=C1C#N)N)c1ccccc1)C(=O)c1ccccc1,5.09097803
1005,ATOWAJ,C22 H24 N4 O1,CCCC1=C(CC)C=C(N1)C1=C(C#N)C(=C(N1C)C(=O)c1ccccc1)N,5.81697778
1006,ATUCOJ,C16 H14 Br1 N1 O3,CCOC(=O)c1c(C)c2c(Br)ccc3NC(=O)c(c1C)c23,5.84446128
1008,ATUFIF,C32 H26 B1 F10 N1,C[N+](C)=C1CC(C)(C)C2=C1C(C=C2)[B-](CCc1ccccc1)(c1c(F)c(F)c(F)c(F)c1F)c1c(F)c(F)c(F)c(F)c1F,5.91385031
1009,ATUJEF,C22 H16 F6 O4,COc1ccc(cc1)C(=CC=C(C(=O)C(F)(F)F)C(=O)C(F)(F)F)c1ccc(OC)cc1,5.06621567
1010,ATUJIJ,C24 H22 Br2 N2,CN(C)c1ccc2cc(Br)ccc2c1c1c(ccc2cc(Br)ccc12)N(C)C,5.76962997
1011,ATUJOP,C26 H24 N2 O2,CN(C)c1ccc2cc(C=O)ccc2c1c1c(ccc2cc(C=O)ccc12)N(C)C,5.62459329
1012,ATUKUW,C16 H15 N3,CN1C=CC=C1C=CC1=CC(CCC1)=C(C#N)C#N,4.702671560000001
1013,ATULAC,C19 H16 O3,CC1CCCc2ccc3C(=O)c4c(O)cccc4C(=O)c3c12,6.26433295
1014,ATULIL,C31 H24 O3,O=C1C(CCC1=Cc1cccc(Oc2ccccc2)c1)=Cc1cccc(Oc2ccccc2)c1,5.7878616
1015,ATULUX,C11 H11 F1 N2 O2,CC(=O)C(=NNc1ccc(F)cc1)C(C)=O,6.0395669100000005
1016,ATUNOT,C20 H15 N1 O1,Cc1cc(C)cc(c1)N=C1C(=O)c2cccc3cccc1c23,5.91385031
1017,ATUNUZ01,C18 H10 Cl1 N1 O1,Clc1ccc(cc1)N=C1C(=O)c2cccc3cccc1c23,6.17127002
1018,ATUPAH,C20 H15 N1 O1,Cc1cccc(C)c1N=C1C(=O)c2cccc3cccc1c23,5.90242153
1019,ATUQAJ,C16 H15 N1 O2 S1,COc1ccccc1C=CC1=NC2=C(S1)C(=O)CCC2,5.60255207
1020,ATUQEN,C19 H14 N2 O2,CC(=O)c1c(O)c2ccc3c(C)cccc3c2c2nccnc12,5.75711273
1021,ATURUE,C33 H25 N5,Nc1ccc(cc1)N(c1ccccc1)c1ccc(cc1)c1cc(nc(c1)c1ccccn1)c1ccccn1,5.61806256
1022,ATUWIV,C33 H26 N2 O4,COc1ccc(cc1)C(=O)C1C2CCCN2C2(C(=O)c3cccc4cccc2c34)C21C(=O)Nc1ccccc21,6.0354852
1023,ATUXET,C33 H31 N5 S2,Cc1cc(C#N)c(C=Cc2ccc(cc2)N(CCSc2ccccc2N)CCSc2ccccc2N)cc1C#N,5.11437982
1024,ATUXOC,C16 H12 Br1 N3 O1 S1,Oc1ccc(Br)cc1C=NNC1=NC(=CS1)c1ccccc1,6.02487277
1025,ATUYAP,C19 H20 Cl1 N1 O2,CC1=CC(=O)N(CC(=O)c2ccc(Cl)cc2)C2=C1CCCCC2,5.7386089899999995
1026,ATUZIZ,C24 H28 N6 S2,S=C(NN=C(c1ccccc1)C(=NNC(=S)N1CCCC1)c1ccccc1)N1CCCC1,5.71357452
1027,AVABEE01,C18 H16 O4,COc1cc(C=CC(O)=CC(=O)c2ccccc2)ccc1O,5.516836209999999
1028,AVAFOS,C34 H28 N2,N#Cc1c(cc(c2ccc3c(ccc4ccccc34)c2)c2CCc3ccccc3c12)N1CCCCC1,5.76173868
1029,AVAGAF,C25 H20 N2 O2,O=C1OC(=CC(=C1C#N)N1CCCCC1)c1ccc2ccc3ccccc3c2c1,5.687179479999999
1030,AVAGUA,C12 H7 I1 O2,Ic1ccc(cc1)C1=CC(=O)C=CC1=O,5.2613213
1031,AVAJOY,C20 H17 Br1 N2 O2,CCOC(=O)C1=CC2=Cc3ccccc3N2C(N1)c1ccccc1Br,5.7288129
1032,AVALAK,C19 H17 N1 O4 S1,COC1C=CCC2(C(=O)C=CC(=O)C12C#N)S(=O)c1ccc(C)cc1,6.42923395
1033,AVALIU,C27 H23 N1 O3,COc1ccc(cc1)N1C2=C(C(=O)CC(C)(C)C2O)C2=C1c1cccc3cccc2c13,5.53016978
1034,AVALOA,C29 H23 Cl2 N1 O3,CCC(=O)OC1C2=C(C(=O)CC1(C)C)C1=C(N2c2cc(Cl)cc(Cl)c2)c2cccc3cccc1c23,5.76690883
1035,AVALUG,C26 H18 Br1 N1 O1,CC1(C)C=CC2=C(C1=O)C1=C(N2c2ccc(Br)cc2)c2cccc3cccc1c23,5.34567659
1036,AVAMAM,C25 H16 N2,N#CC(=Cc1cccc2ccccc12)N1c2ccccc2c2ccccc12,5.7391532199999995
1037,AVAMAN,C32 H20 Cl1 N1 O2,CC(=O)Oc1cc(cc2N(c3ccc(Cl)cc3)C3=C(c4cccc5cccc3c45)c12)c1ccccc1,5.16036707
1038,AVAMER,C16 H12 F2 N4 S1,Fc1ccc(cc1)C=NN1C(=S)NN=C1Cc1ccccc1F,5.750854110000001
1039,AVAPAQ,C22 H25 N3 O1 S1,O=C(NC(=S)NC1CCN(CC1)Cc1ccccc1)C=Cc1ccccc1,5.73017346
1040,AVAPEU,C14 H19 N3 O2 S1,O=C(NC(=S)NCCN1CCOCC1)c1ccccc1,6.225964899999999
1041,AVARIZ,C33 H21 N1 O4,COC(=O)C1=C(C(=O)OC)C(=Nc2cccc3ccccc23)c2c3ccc4cccc5ccc(cc12)c3c45,4.602805780000001
1042,AVAWEB,C20 H22 N4 O3,CCN1C(=O)N(CC)C2=C(N(C)C(=O)C3=C2c2ccccc2N3CC)C1=O,5.8545295
1043,AVAXIG,C28 H26 N2 S1,CN1c2ccccc2C2=C1C1=CC=C(S1)C1=C(CCC=CCC2)c2ccccc2N1C,5.7407859
1044,AVAYED,C26 H44 Br2,CC(C)(C)C(Br)(C=CC=CC=CC=CC(Br)(C(C)(C)C)C(C)(C)C)C(C)(C)C,5.77044631
1045,AVEGOX,C17 H20 O6,COc1ccc(OC)c(c1)C1=CC(OC)(OC)C(=CC1=O)OC,6.16609985
1046,AVEGUD,C17 H20 O6,COc1ccc(OC)c(c1)C1=CC(OC)(OC)C(=O)C=C1OC,6.07956764
1047,AVEHAK,C15 H14 O5,COc1ccc(OC)c(c1)C1=CC(=O)C(=CC1=O)OC,5.13669316
1048,AVEPIC,C27 H23 Cl1 O5,COc1ccc2c(Cl)cc3c4cc(OC)c(OC)cc4c4cc(OC)c(OC)cc4c3c2c1,5.8795639699999995
1049,AVEQEZ,C15 H9 N3 O2,O=C1Nc2ccccc2C1=C1C(=O)Nc2ncccc12,5.0512494100000005
1050,AVERUF,C20 H16 O7,CC12CCCC(O1)c1c(O)c3C(=O)c4c(O)cc(O)cc4C(=O)c3cc1O2,5.9391569
1051,AVIBEN,C30 H16 S2,S1c2cc3cc4ccccc4cc3cc2C2=C1c1cc3cc4ccccc4cc3cc1S2,4.37178112
1052,AVICEN10,C20 H20 O4,COc1c(C=CC(C)=C)c2OC(=O)C=Cc2c2OC(C)(C)C=Cc12,5.89316966
1053,AVICEO,C46 H36 N4 O2,CCOC1OCC2=NC1=C(C1=CC=C(N1)C(=C1C=CC(=N1)C(=C1NC(=C2c2ccccc2)C=C1)c1ccccc1)c1ccccc1)c1ccccc1,4.15871598
1054,AVILIC02,C24 H15 N1,c1ccc2N3c4cccc5cccc(c6cccc(C=Cc2c1)c36)c45,5.546768729999999
1055,AVILOI02,C22 H13 N1 S1,S1c2ccccc2N2c3cccc4cccc(c5cccc1c25)c34,5.42948766
1056,AVILUO,C26 H20 N6 O2,CCOC(=O)C1=NN(c2ccccc2)c2nc(N)c(C#N)c3nc(cc1c23)c1ccc(C)cc1,5.46268555
1057,AVIMAV,C21 H20 N6 O2,CCOC(=O)C1=NN(c2ccccc2)c2nc(N)c(C#N)c3NC(C)(C)C=C1c23,5.38431676
1058,AVIMEZ,C16 H10 N6 O1,CC1=C(C#N)C(NC(=O)C1=NNc1ccccc1)=C(C#N)C#N,4.73314832
1059,AVIQON,C15 H20 N4 S2,CC(C)(C)N1C(=S)N(C2=CC3=NSN=C3C=C12)C(C)(C)C,5.4490798499999995
1060,AVISED,C30 H20 N2 S2,S1c2ccccc2N(c2ccc(cc2)N2c3ccccc3Sc3ccccc23)c2ccccc12,5.98024609
1061,AVITEE,C32 H24 N2 S2,Cc1cc(N2c3ccccc3Sc3ccccc23)c(cc1C)N1c2ccccc2Sc2ccccc12,5.772895340000001
1062,AVIWIN,C16 H17 N1 O4,COc1ccc(C=CC(=O)N2CCC=CC2=O)cc1OC,6.01317187
1063,AVOFEY02,C32 H24 N2,N(c1ccccc1)C(C(Nc1ccccc1)=C1C=Cc2ccccc12)=C1C=Cc2ccccc12,4.92281167
1064,AVONOQ,C25 H19 N1 O3 S2,CN1CC(C2=CC=CS2)C2(CSc3ccccc3C2=O)C21C(=O)c1ccccc1C2=O,6.03113139
1065,AVONUW,C27 H20 F1 N1 O3 S1,CN1CC(c2ccc(F)cc2)C2(CSc3ccccc3C2=O)C21C(=O)c1ccccc1C2=O,6.04936301
1066,AVOPOQ,C8 H4 F3 N1 O3,FC(F)(F)C(=O)NC1=CC(=O)C=CC1=O,6.2387542499999995
1067,AVOVIQ,C28 H24 N2 O5 S2,COC(=O)C1=C(SC(S1)=CC#Cc1ccc(cc1)C1=NN=C(O1)c1ccc(cc1)C(C)(C)C)C(=O)OC,5.30948545
1068,AVOWUF,C18 H15 N1 O1,Cc1ccccc1C([O-])=Cc1[nH+]c2ccccc2cc1,5.45180099
1069,AVUCUR,C16 H21 N1 O4,CCCCOc1ccc(OCCCC)c2C(=O)NC(=O)c12,6.117663589999999
1071,AVUFON,C34 H39 N1 O2 S4,CCCCCCC1=C(SC=C1)C1=CC=C(S1)C1=CC=C(S1)C1=C(CCCCCC)C=C(S1)C=C(C#N)C(=O)OCC,4.495320810000001
1076,AVUMUZ,C14 H12 N2 O3 S1,O=C1N2CCCN=C2SC1=Cc1ccc2OCOc2c1,5.868407299999999
1077,AVUQEO,C33 H27 N3 P2,N(N(P(c1ccccc1)c1ccccc1)P(c1ccccc1)c1ccccc1)c1cccc2cccnc12,5.98323935
1078,AVUQIS,C33 H27 N3 P2,Nc1c(ccc2cccnc12)P(=NP(c1ccccc1)c1ccccc1)(c1ccccc1)c1ccccc1,5.50567953
1079,AVUZEW,C30 H28 N2,Cc1cc(C)c(N=C2c3cccc4cccc(C2=Nc2c(C)cc(C)cc2C)c34)c(C)c1,5.7503098900000005
1080,AVUZIB,C14 H12 N2 O3,COc1ccc2NC=C(C=C3C(=O)ON=C3C)c2c1,5.61751833
1081,AVUZIC,C31 H20 N2 S1,S1c2ccccc2N=C1c1ccc(cc1)c1ccc(cc1)N1c2ccccc2c2ccccc12,5.6757507
1082,AWATEZ,C16 H12 Cl1 N1 O2 S1,ClC1=C(NCCC2=CC=CS2)C(=O)c2ccccc2C1=O,5.14594503
1083,AWAYOM01,C20 H21 N5 O1 S1,CCNC(=S)NN=C(c1ccccc1)C1=C(C)NN(C1=O)c1ccccc1,5.79330388
1084,AWEBEL,C11 H15 N3 O2 S1,CCOc1cccc(C=NNC(=S)NC)c1O,5.93589154
1085,AWECUA,C15 H15 N5 S1,CN(C)c1ccc(cc1)C=NC1=C(N)C2=NSN=C2C=C1,4.97532964
1086,AWEDAH,C23 H14 N4 S1,NC1=C(N=Cc2ccc3ccc4cccc5ccc2c3c45)C2=NSN=C2C=C1,4.66348717
1087,AWEDEL,C28 H18 N4 S1,C(N1C(=NC2=C1C1=NSN=C1C=C2)c1cccc2ccccc12)c1cccc2ccccc12,5.95439528
1088,AWEDEN,C19 H13 N3 O3 S2,C=CCN=C1SC2=C(N1NC(=O)C1=CC=CS1)C(=O)c1ccccc1C2=O,4.82974873
1089,AWEDIR,C24 H16 N4 O3 S1,O=C(N1N=C(NCc2ccccc2)SC2=C1C(=O)c1ccccc1C2=O)c1ccccn1,5.01696306
1090,AWEDOX,C23 H15 N3 O3 S2,O=C(N1N=C(NCc2ccccc2)SC2=C1C(=O)c1ccccc1C2=O)C1=CC=CS1,5.01886786
1091,AWEFEP,C25 H29 N1 O5 S1,CC(C)(C)C1=CC(=C(C(=O)C(=C1)C(C)(C)C)c1[nH+]c2c(OS(C)(=O)=O)cccc2cc1)[O-],5.39166383
1092,AWEGAM,C26 H19 N3,N#CC(=Cc1ccc(cc1)N(c1ccccc1)c1ccccc1)c1cccnc1,5.26186553
1093,AWEGEQ,C26 H19 N3,N#CC(=Cc1ccc(cc1)N(c1ccccc1)c1ccccc1)c1ccncc1,5.14023064
1094,AWEGIU,C22 H17 N3,CCN1c2ccccc2c2cc(ccc12)C=C(C#N)c1ccccn1,5.5443197
1095,AWEGUG,C15 H16 N4 O4,CCOC(=O)C1=C(C(=O)OCC)C(=C2N=C(N)C=C(C)N12)C#N,6.05072358
1096,AWEMOF,C19 H14 N4 O3,COc1ccc(cc1)C1=NOC=C1C(=O)C1=NN(N=C1)c1ccccc1,6.187324739999999
1097,AWENEX,C24 H23 Br1 N4 O3,COc1ccc(cc1)C1(CCO)CC(=NN1C(=O)Nc1ccc(Br)cc1)c1cccnc1,6.097799269999999
1098,AWESUS,C16 H10 N6 O2,O=C(NC(C#N)=C(NC(=O)c1ccccn1)C#N)c1ccccn1,6.13045294
1099,AWIKUN,C26 H27 O4 P1,CCOC(=O)CC(C(=O)OCC)=P(c1ccccc1)(c1ccccc1)c1ccccc1,6.04854667
1100,AWIKUO,C23 H20 N2 S1,CN(C)c1ccc(cc1)c1ccccc1C=CC1=Nc2ccccc2S1,5.3503025300000004
1101,AWIQOO02,C33 H23 F1 N2,Fc1cccc(c1)C=C(C#N)c1ccc(cc1)c1ccc(cc1)N(c1ccccc1)c1ccccc1,4.93097508
1102,AWIRIJ,C58 H38,c1ccc(cc1)c1ccccc1C(C(c1ccccc1c1ccccc1)c1ccc2ccc3cccc4ccc1c2c34)c1ccc2ccc3cccc4ccc1c2c34,5.57833393
1103,AWIROP,C50 H36,c1ccc(cc1)c1ccc(cc1)C(c1ccccc1c1ccccc1)=C(c1ccc(cc1)c1ccccc1)c1ccccc1c1ccccc1,5.7230985
1104,AWISIK02,C23 H25 N2 O2 P1 S2,CC(C)OP(=S)(NC(=S)Nc1ccc2ccc3cccc4ccc1c2c34)OC(C)C,5.62105581
1105,AWISUW,C22 H21 N1 O5,COC1CC2(C)Nc3c(OC2C(C)O1)ccc1C(=O)c2ccccc2C(=O)c31,5.1258086
1107,AWIWIO,C24 H23 N3 S1,Cc1ccc(cc1)N=C1C(Sc2nc3ccccc3cc12)=NC1CCCCC1,5.47874026
1108,AWIXOT01,C16 H12 N4,N1C=CC=C1c1nc2ccccc2nc1C1=CC=CN1,5.70704379
1109,AWIXUZ02,C18 H12 N4 O2,O=CC1=CC=C(N1)c1nc2ccccc2nc1C1=CC=C(N1)C=O,5.4833662
1110,AWIZUB,C17 H15 N3,Cc1cccc(c1)N=Nc1c(N)ccc2ccccc12,5.29587976
1111,AWOFUP01,C26 H18 O2,O1C(=CC=C1c1ccc(cc1)C1=CC=C(O1)c1ccccc1)c1ccccc1,5.43356936
1112,AWOJIF,C22 H18 N4 O6,CCOc1ccc(cc1)[N+]1=NOC(=C1C1=NOC2(C)C1C(=O)N(C2=O)c1ccccc1)[O-],6.02324009
1113,AWOJOL,C19 H9 N3 O5,O=C1C2=C(C(=O)c3ccccc13)C(=NO2)C1=C([O-])ON=[N+]1c1ccccc1,5.0109765600000005
1114,AWOJUR,C15 H9 N3 O2 S1,[O-]C1=C([N+](=NO1)c1ccccc1)C1=Nc2ccccc2S1,5.68799581
1115,AWOLIJ,C13 H13 N3 O2 S2,CC(=O)C(C)=NNC(=O)CSC1=Nc2ccccc2S1,6.11984049
1116,AWOSAG,C18 H6 N6,N#CC(C#N)=C1c2ccccc2C(=C(C#N)C#N)c2nccnc12,5.56146287
1117,AWOSEK,C23 H9 N7,N#CC(C#N)=C1c2ccccc2C(=C(C#N)C#N)c2nc(cnc12)c1ccncc1,5.46540669
1118,AWOWEO,C16 H14 N4 O1,CC(=O)N1N=C(NN=C1c1ccccc1)c1ccccc1,6.44420021
1119,AWUDON,C17 H14 O2,Cc1ccc2OC3(Cc4ccccc4C3=O)Cc2c1,6.1486845699999995
1120,AWUFOP,C29 H25 N1 O5,COC(=O)C(=O)C1C(c2ccccc2)C(C(=O)OC)(c2ccccc2)C2=C1N(C)c1ccccc21,5.78432412
1122,AWUGII,C42 H30 N2 O2,OC(C#Cc1ccccc1N=Nc1ccccc1C#CC(O)(c1ccccc1)c1ccccc1)(c1ccccc1)c1ccccc1,6.09072431
1123,AWUJEI,C21 H20 O4,COc1ccccc1C=CC(O)=CC(=O)C=Cc1ccccc1OC,5.607994339999999
1124,AWUKEJ,C15 H19 Cl1 N2 O1 S1,CN(C1CCCCC1)C(=S)NC(=O)c1ccc(Cl)cc1,5.95847699
1125,AWUPAK,C24 H21 F1 N2 O5 S1,COC(=O)C1=C(C)N=C2SC(=Cc3ccc(OC)cc3F)C(=O)N2C1c1ccc(OC)cc1,5.57860605
1126,AWUQEQ,C42 H46 S4,CC(C)(C)c1cc(cc(c1)C(C)(C)C)C1=CC2=C(S1)c1cc3SC4=C(SC(=C4)c4cc(cc(c4)C(C)(C)C)C(C)(C)C)c3cc1S2,5.32091423
1127,AWUQIU,C34 H32 S2,CCCCc1ccc(cc1)C1=Cc2ccc3c4SC(=Cc4ccc3c2S1)c1ccc(CCCC)cc1,5.65207679
1128,AWUQOZ,C19 H19 Cl1 N4 O1 S1,CCC1=NN(C(CC(=O)c2ccccc2)c2ccccc2Cl)C(=S)N1N,5.77126265
1129,AWUQUG,C28 H22 S2,CCCCc1ccc(cc1)C1=CC2=C(S1)c1c(S2)c2ccccc2c2ccccc12,5.6115318300000006
1130,AWURAN,C46 H44 S2,CCCCCCc1ccc(cc1)C1=Cc2c(S1)c1c3ccccc3c3C=C(Sc3c1c1ccccc21)c1ccc(CCCCCC)cc1,5.11465193
1131,AWUSUH,C18 H17 N3 O4,COC(=O)CNC(C1=CC=CO1)=C1C(=NN(C1=O)c1ccccc1)C,5.592755970000001
1132,AWUWEW,C47 H28 O5,COc1cc(OC)c2c3cccc4C(=O)c5cccc6c7c(OC)cc(OC)c8c9ccccc9c9c%10c%11ccccc%11c1c2c%10c(c34)c(c56)c9c78,4.708385959999999
1133,AWUWIA,C45 H24 O5,COC1=CC(=O)c2c3ccccc3c3c4c5ccccc5C(=O)c5ccccc5c4c4c5ccccc5c5C(=O)C=C(OC)c6c1c2c3c4c56,4.013679290000001
1134,AWUXAS,C10 H11 Cl1 N2 O2,COc1ccc(NN=C(Cl)C(C)=O)cc1,6.07711862
1135,AWUZOI,C26 H28 N1 O3 P1,CCOP(=O)(OCC)C(Nc1ccc(C)cc1)c1c2ccccc2cc2ccccc12,5.28771634
1136,AXABOR,C22 H19 F1 N2 O1 S1,Fc1ccc(cc1)C(=O)NC(=S)N(Cc1ccccc1)Cc1ccccc1,6.2003862000000005
1137,AXAGAI,C16 H20 N1 O4 P1,CCOP(=O)([O-])C([NH2+]Cc1ccccc1)c1ccccc1O,6.29480971
1138,AXAHAJ,C30 H16 N4 O4,O1c2ccccc2N=C1C(C1=Nc2ccccc2O1)=C(C1=Nc2ccccc2O1)C1=Nc2ccccc2O1,5.636838409999999
1139,AXAHEN,C42 H36 N6 O2,CC1=NN(C(=O)C1=C(NCc1cccc(CNC(c2ccccc2)=C2C(=NN(C2=O)c2ccccc2)C)c1)c1ccccc1)c1ccccc1,6.1288202599999995
1140,AXALAN,C14 H9 N1 O2,O=C1N(c2ccccc2)c2ccccc2C1=O,6.00228731
1141,AXAMAO,C6 H5 N1 O3,Oc1ccc[nH+]c1C(=O)[O-],5.44880774
1142,AXANAP,C24 H24 N1 O3 P1,COP(=O)(OC)C(Nc1ccc(C)cc1)c1c2ccccc2cc2ccccc12,5.44200489
1143,AXANOD,C23 H18 N2 O3,CC(=O)c1ccc(NN=C(C(=O)c2ccccc2)C(=O)c2ccccc2)cc1,5.84364494
1144,AXASAU,C10 H13 N3 S2,CNC(=S)NN=Cc1ccc(SC)cc1,5.79031063
1145,AXATUP,C23 H20 N2 O7,CCOC(=O)CN1C(=O)N(CC(=O)OCC)c2c1ccc1C(=O)c3ccccc3C(=O)c21,5.3693504999999995
1146,AXAVAX,C17 H13 N1 O1 S2,O=C1N(Cc2ccccc2)C(=S)SC1=Cc1ccccc1,5.72064948
1147,AXAVEB,C16 H15 Cl1 O4 S1,COc1cc(OC)c(C=CC(=O)C2=CC=C(Cl)S2)cc1OC,5.49452287
1148,AXAWAY,C17 H16 Br1 N3 O2 S1,CN1c2ccc(Br)cc2C(CS1(=O)=O)=NN=Cc1ccc(C)cc1,5.90133307
1149,AXAWUS,C12 H10 N2 S6,CCSC1=C(SCC)SC(S1)=C1SC(=C(S1)C#N)C#N,4.64199018
1150,AXEBIQ,C26 H30 Cl1 N1 O7,CCOC(=O)C(=CC(=O)OC)C(=O)N(C1CCCCC1)C1c2cc(Cl)ccc2OC(=C1C(C)=O)C,6.054805290000001
1151,AXEDUC,C36 H24 N2,c1ccc(cc1)c1ccccc1N=C1c2cccc3cccc(C1=Nc1ccccc1c1ccccc1)c23,5.524183280000001
1152,AXEFIT,C16 H11 N3,CN(C)c1ccc(cc1)C#CC#CC=C(C#N)C#N,4.58783952
1153,AXEFOZ,C18 H11 N3,CN(C)c1ccc(cc1)C#CC#CC#CC=C(C#N)C#N,4.28388835
1154,AXEFUF,C16 H13 N3,CN(C)c1ccc(cc1)C#CC=CC=C(C#N)C#N,4.53967537
1155,AXEHIV,C33 H34 N1 P1,CN(c1c(ccc2ccccc12)P(c1ccccc1)c1ccccc1)C12CC3CC(CC(C3)C1)C2,6.075213829999999
1156,AXEJET,C26 H28 N2 O4,CC(C)(C)OC(=O)NCCCCC1=C2Oc3ccccc3C(=O)C2=C(N1)c1ccccc1,5.801195180000001
1157,AXELIZ,C30 H21 N1 S3,S1C=CC=C1c1ccc(cc1)N(c1ccc(cc1)C1=CC=CS1)c1ccc(cc1)C1=CC=CS1,5.69017273
1158,AXERUQ,C9 H10 Cl1 N5 O1,Clc1ccc(CN2CCNC2=NN=O)cn1,6.78352618
1159,AXESEB,C9 H9 Cl1 N4 O1 S1,Clc1ccc(CN2CCSC2=NN=O)cn1,7.01509506
1161,AXIDER,C42 H24 F4,Fc1ccc(cc1)c1c2ccc(F)cc2c(c2ccccc2)c2c(c3ccc(F)cc3)c3ccc(F)cc3c(c3ccccc3)c12,4.32062372
1162,AXIDOB,C38 H22 F4 S2,Fc1ccc(cc1)C(c1ccc(F)cc1)=C1C(=C(C2=CC=CS2)C1=C(c1ccc(F)cc1)c1ccc(F)cc1)C1=CC=CS1,5.43792318
1163,AXIFAP,C16 H7 Br2 F3 O1,FC(F)(F)c1cccc(c1)C1=C(Br)C(=O)c2ccc(Br)cc12,5.55955808
1164,AXIFET,C21 H11 Br1 Cl2 O1,Clc1ccc(cc1)C1=C(c2ccc(Cl)cc2)c2cc(Br)ccc2C1=O,5.27764813
1165,AXIFIX,C30 H18 F6 O2,COc1ccc(cc1)c1ccc2C(=O)C(=C(c3ccc(cc3)C(F)(F)F)c2c1)c1ccc(cc1)C(F)(F)F,5.18948324
1166,AXIJOI,C30 H22 F9 N1 O2 S1,OC(c1ccccc1S(=O)C(c1ccccc1)C(Nc1ccccc1)(c1ccccc1)C(F)(F)F)(C(F)(F)F)C(F)(F)F,5.83602575
1167,AXIYOW,C21 H13 Br1 O1 S1,Brc1ccc2C(=O)C(=C(c3ccccc3)c2c1)Sc1ccccc1,5.000908339999999
1168,AXIZOX,C29 H24 N4 O2,CCOC(=O)C1(C#N)C(CN(C)C21c1ccccc1c1nc3ccccc3nc21)c1ccccc1,6.052628370000001
1169,AXIZUD,C27 H18 F1 N5,CN1CC(c2ccc(F)cc2)C(C#N)(C#N)C21c1ccccc1c1nc3ccccc3nc21,6.19875351
1170,AXOBAR,C27 H18 Cl1 N5,CN1CC(c2ccccc2Cl)C(C#N)(C#N)C21c1ccccc1c1nc3ccccc3nc21,6.2300466
1171,AXODAS,C22 H17 N1 O1,COc1ccc(cc1)N=Cc1c2ccccc2cc2ccccc12,5.26757992
1172,AXOJAZ,C19 H15 N1 O6 S4,CCCN1C(=O)c2cc3SC(Sc3cc2C1=O)=C1SC(=C(S1)C(=O)OC)C(=O)OC,4.76117604
1173,AXOJED,C23 H12 F3 N1 O6 S4,COC(=O)C1=C(SC(S1)=C1Sc2cc3C(=O)N(C(=O)c3cc2S1)c1ccc(cc1)C(F)(F)F)C(=O)OC,4.542940740000001
1174,AXOJIH,C18 H10 F3 N1 O6 S4,COC(=O)C1=C(SC(S1)=C1Sc2cc3C(=O)N(CC(F)(F)F)C(=O)c3cc2S1)C(=O)OC,4.56879155
1175,AXOJON,C20 H10 F7 N1 O6 S4,COC(=O)C1=C(SC(S1)=C1Sc2cc3C(=O)N(CC(F)(F)C(F)(F)C(F)(F)F)C(=O)c3cc2S1)C(=O)OC,4.5755944
1176,AXOMIK,C26 H16 O3,O=C1OC(=O)C2C1C1c3ccccc3C2c2cc3cc4ccccc4cc3cc12,5.5592859599999995
1178,AXONUX,C19 H19 N1 O3,COc1cccc(NCCCC2=Cc3ccccc3OC2=O)c1,5.65561427
1179,AXOTEN,C20 H17 N1 S4,CC(C)(C)N1C2=C(SC(=C2)C2=CC=CS2)C2=C1C=C(S2)C1=CC=CS1,5.1728843