,ID,formula,smiles,HOMO_LUMO_gap
5143,DIVGIZ,C36 H30 Cl1 N1 O4 S1,Cc1ccc(cc1)S(=O)(=O)N1C(=O)C2(C(=CC3=C(OCC3C2(C)C)c2ccc(Cl)cc2)c2ccccc2)c2ccccc12,5.645273939999999
5144,DIVGUL,C38 H33 N1 O6 S1,COc1ccc(cc1)C1=CC2=C(OCC2C(C)(C)C21C(=O)N(c1ccccc21)S(=O)(=O)c1ccc(C)cc1)c1ccc(C=O)cc1,5.247443499999999
5145,DIVGUN,C17 H12 F2 O3,OC(C=Cc1ccc(O)c(F)c1F)=CC(=O)c1ccccc1,5.82269217
5146,DIVHAS,C34 H34 Cl1 N1 O4 S1,CCCCC1=CC2=C(OCC2C(C)(C)C21C(=O)N(c1ccccc21)S(=O)(=O)c1ccc(C)cc1)c1ccc(Cl)cc1,5.93235406
5147,DIVHEW,C34 H35 N1 O4 S1,CCCCC1=CC2=C(OCC2C(C)(C)C21C(=O)N(c1ccccc21)S(=O)(=O)c1ccc(C)cc1)c1ccccc1,6.0183420299999995
5148,DIVHIA,C32 H31 N1 O6 S1,COc1ccc(cc1)C1=C2C=C(c3ccc(OC)cc3)C3(C(=O)N(c4ccccc34)S(C)(=O)=O)C(C)(C)C2CO1,6.00745748
5149,DIVMAX,C20 H24 N6 S2,CCNC(=S)NN=C(c1ccccc1)C(=NNC(=S)NCC)c1ccccc1,5.59656556
5150,DIVSOQ,C11 H14 N2 S3,S=C1SC(=S)C2=C3N(CCCC2)CCCN13,5.53506784
5151,DIVWUD,C45 H46 N3 P1,Cc1cc(C)cc(NCc2ccccc2P23(N(Cc4ccccc24)c2cc(C)cc(C)c2)N(Cc2ccccc32)c2cc(C)cc(C)c2)c1,5.91874836
5152,DIWCEU,C21 H17 Br1 N2,CCN1c2ccccc2c2cc(ccc12)N=Cc1ccccc1Br,5.78949428
5153,DIWCOE,C21 H17 Cl1 N2,CCN1c2ccccc2c2cc(ccc12)N=Cc1cccc(Cl)c1,5.79738559
5154,DIWDEV,C21 H17 Cl1 N2,CCN1c2ccccc2c2cc(ccc12)N=Cc1ccc(Cl)cc1,5.884462020000001
5155,DIWGIA,C15 H10 I1 N3,Ic1ccc(cc1)C=NN=Cc1ccc(cc1)C#N,5.97344324
5156,DIWJID,C28 H33 N3 O1,CN1CC(=CC=Cc2ccc(cc2)N(C)C)C(=O)C(C1)=CC=Cc1ccc(cc1)N(C)C,4.78729897
5157,DIWJOJ,C26 H27 N1 O3,COc1ccc(C=CC=C2CN(C)CC(=CC=Cc3ccc(OC)cc3)C2=O)cc1,5.34322757
5158,DIWKOK01,C16 H16 O3,CCCC1CCOC2=C1C(=O)C(=O)c1ccccc21,5.78813371
5159,DIWMAA,C25 H15 F1 N2 O1,Oc1ccccc1C1=NC2=C(N1c1ccc(F)cc1)c1cccc3cccc2c13,5.41207237
5160,DIWMAY,C18 H13 N1 O3,OC(=O)c1ccc(cc1)N=Cc1c(O)ccc2ccccc12,5.2101638999999995
5161,DIWMOM01,C20 H14 O1,O1C(=C2C=CC=CC2=C1c1ccccc1)c1ccccc1,5.16635357
5162,DIWNOO,C28 H22 Br2 N4 O1,CN1N=C(C)c2c1nc(c1ccc(Br)cc1)c(Nc1ccc(C)cc1)c2C(=O)c1ccc(Br)cc1,5.381867730000001
5163,DIWNUV,C18 H12 N2 S6,C1CSC2=C(S1)SC(S2)=C(SC1=NN=CS1)c1cccc2ccccc12,5.85534583
5164,DIWPAD,C28 H22 N4 S5,CN1C=CN=C1SC(=C1SC(=C(SCCC#N)S1)SCCC#N)c1c2ccccc2cc2ccccc12,5.19819089
5165,DIWPIJ,C13 H12 N2 O2 S1,O=C(NC(=S)NCc1ccccc1)C1=CC=CO1,6.154943190000001
5166,DIWPIL,C24 H20 N2 S5,CSC1=C(SC)SC(S1)=C(SC1=NC=CN1C)c1c2ccccc2cc2ccccc12,5.1794150299999995
5167,DIWQOR,C23 H18,C1CC1c1c(ccc2cc3ccccc3cc12)c1ccccc1,5.4591480699999995
5168,DIWQUX,C20 H14,c1ccc(cc1)c1cccc2cc3ccccc3cc12,5.09152226
5169,DIWRAE,C24 H22,CCCCc1c(ccc2cc3ccccc3cc12)c1ccccc1,5.4406443300000005
5170,DIWSEJ,C26 H30 N2 O1 S1,CC(CC=C(c1ccc(cc1)N(C)C)c1ccc(cc1)N(C)C)C(=O)C1=CC=CS1,5.72391484
5171,DIWSEK,C24 H20 N4 S5,CN1C=CN=C1SC(=C1SC(=C(SCCC#N)S1)SCCC#N)c1cccc2ccccc12,5.68690736
5172,DIWSIM,C23 H19 Cl1 N2 O3 S1,CCOC(=O)C1=C(C)N=C2SC(=Cc3cccc(Cl)c3)C(=O)N2C1c1ccccc1,5.6975198
5173,DIWSIO,C23 H16 N2 S6,CC1=NN=C(S1)SC(=C1SC2=C(SCCS2)S1)c1c2ccccc2cc2ccccc12,5.23247723
5174,DIWSOR,C20 H20 O5 S1,CC1(C)OC(=O)C(C(=O)O1)=C1C2CC([S+]([O-])c3ccccc3)C(C2)C1=C,6.2390263699999995
5175,DIWSOT,C16 H8 F2 S4,Fc1ccc(cc1)C1=C2SSC(=C2SS1)c1ccc(F)cc1,4.6659362
5176,DIWSUZ,C18 H14 O2 S6,COc1ccc(cc1)C1=C2SSSSSC2=C(S1)c1ccc(OC)cc1,6.24201961
5177,DIWTAG,C40 H44 N2 O4 S4,CCCCC(CC)COC(=O)C(=Cc1ccc(cc1)C1=C2SSC(=C2SS1)c1ccc(cc1)C=C(C#N)C(=O)OCC(CC)CCCC)C#N,3.7170751999999996
5180,DIWVAI,C36 H20 N2 O4,O1c2ccccc2N2c3ccccc3Oc3cc(cc1c23)c1cc2Oc3ccccc3N3c4ccccc4Oc(c1)c23,5.3908474900000005
5182,DIWVEM,C36 H20 N2 O4,O1c2ccccc2N2c3ccc(cc3Oc3cccc1c23)c1ccc2N3c4ccccc4Oc4cccc(Oc2c1)c34,5.345676600000001
5183,DIWVEN,C11 H13 N1 O4 S1,CC1(C)COC(=[NH+]1)c1ccccc1S(=O)(=O)[O-],5.92446275
5184,DIWVOW,C38 H18 F6 N2 O4,FC(F)(F)c1ccc2Oc3cc(cc4Oc5ccccc5N(c2c1)c34)c1cc2Oc3ccccc3N3c4cc(ccc4Oc(c1)c23)C(F)(F)F,5.7111255
5185,DIWVUC,C40 H28 N2 O8,COc1ccc2N3c4ccc(OC)cc4Oc4cc(cc(Oc2c1)c34)c1cc2Oc3cc(OC)ccc3N3c4ccc(OC)cc4Oc(c1)c23,5.7086764699999994
5186,DIWWAJ,C26 H16 Cl1 N1 O1,Clc1ccccc1C(=O)c1cccc2ccc(nc12)c1ccc2ccccc2c1,5.87330535
5187,DIWWEN,C22 H13 N1 O1,O=C1c2ccccc2c2ccc3ccc(nc3c12)c1ccccc1,5.70758801
5188,DIWXIQ,C22 H32 O7,COC(C)CC1=C(O)C(=O)C2=C(C(OC)C(O)C3C(C)(CO)CCCC23C)C1=O,6.23521677
5189,DIXGUP,C43 H31 N1,C=Cc1ccc(cc1)c1ccc(cc1)C(=Cc1ccc(cc1)C(c1ccccc1)=C(c1ccccc1)c1ccccc1)C#N,5.29506341
5190,DIXJIE,C12 H14 O4,COC(=O)C=CC=CC=CC=CC(=O)OC,5.41343295
5191,DIXJUS,C47 H32 N2 O1,Oc1cc(ccc1C1=Nc2c3ccccc3c3ccccc3c2N1c1ccccc1)C(c1ccccc1)=C(c1ccccc1)c1ccccc1,5.56717726
5192,DIXKON,C14 H15 B1 F4 N2,CC1=CC(=C2C=C3[N+](=C(C)C=C3C)[B-](F)(N12)C(F)(F)F)C,4.7791355499999995
5193,DIXNEE,C7 H8 N4 O2 S1,COC(=O)NC(=S)Nc1ncccn1,6.03358041
5194,DIXQAD,C30 H26 N4,CN(C)c1ccc(cc1)C#CC(C#Cc1ccc(cc1)N(C)C)=C1CCC(C=C1)=C(C#N)C#N,4.19409078
5195,DIXQEH,C26 H26 N4,CN(C)c1ccc(cc1)C(=C1CCC(C=C1)=C(C#N)C#N)c1ccc(cc1)N(C)C,4.47327958
5196,DIXQIL,C22 H17 N1 O2,CN(C)c1ccc(cc1)c1ccc2C(=O)c3ccccc3C(=O)c2c1,4.67546018
5197,DIXQOR,C22 H13 N5,CN(C)c1ccc2c(c1)C(=C(C#N)C#N)c1ccccc1C2=C(C#N)C#N,4.52906293
5198,DIXQUX,C30 H18 Cl1 N5,CN(C)c1ccc(cc1)C(Cl)=Cc1ccc2c(c1)C(c1ccccc1C2=C(C#N)C#N)=C(C#N)C#N,3.8721800900000005
5199,DIXRAE,C24 H30 N6 O2,CN(C)C(=Nc1ccc2C(=O)c3cc(ccc3C(=O)c2c1)N=C(N(C)C)N(C)C)N(C)C,5.35901017
5200,DIXREK,C44 H34 Cl2 N4 O2,CN(c1ccccc1)C(=O)N(c1ccccc1)C(=C=C=C(N(c1ccccc1)C(=O)N(C)c1ccccc1)c1ccc(Cl)cc1)c1ccc(Cl)cc1,4.77614231
5201,DIXRUA,C23 H21 Cl1 N2 O2,CN(C)c1ccc(cc1)C(=O)N(CC(=O)c1ccc(Cl)cc1)c1ccccc1,5.94242227
5202,DIXTEN01,C26 H16 O2,O1c2ccccc2C(c2ccccc12)=C1c2ccccc2Oc2ccccc12,5.7002409400000005
5203,DIXWUC,C40 H54 N6,CC1CCN(Cc2ccc3ccccc3n2)C2CCCCC2NC(C)CCN(Cc2ccc3ccccc3n2)C2CCCCC2N1,5.672213210000001
5204,DIXWUD,C28 H22 O2,COc1ccccc1c1c2ccccc2c(c2ccccc2OC)c2ccccc12,5.44118855
5205,DIXXAK,C28 H16 N2,N#Cc1ccccc1c1c2ccccc2c(c2ccccc2C#N)c2ccccc12,5.433841490000001
5206,DIXXIU,C35 H26 N4 O2 S1,COc1cc(OC)cc(c1)C(=CC1=CC=C(c2ccc(cc2)N(c2ccccc2)c2ccccc2)C2=NSN=C12)C#N,4.19300232
5207,DIXZEP,C32 H28 O2,CC(=O)Oc1c2c(cccc2c2cccc(C)c2C)cc2cccc(c3cccc(C)c3C)c12,5.3190094299999995
5208,DIYBIZ,C41 H29 N1 O5,Cc1ccc2N(Cc3ccccc3)C(=O)C3(C(=O)c4ccccc4C4=C3C(=CC(=O)c3ccccc3)C(O)(O4)c3ccccc3)c2c1,5.29778456
5209,DIYBOF,C43 H31 N1 O6,CC(=O)OC1=C(C(=CC(=O)c2ccccc2)C(=O)c2ccccc2)C2(C(=O)N(Cc3ccc(C)cc3)c3ccccc23)C(=O)c2ccccc12,5.83983535
5210,DIYBUL,C39 H30 Cl1 N1 O6,CCCCN1C(=O)C2(C(=O)c3ccccc3C(=C2C(=CC(=O)c2ccccc2)C(=O)c2ccccc2)OC(C)=O)c2cc(Cl)ccc12,5.49289018
5211,DIYCAS,C42 H26 Cl3 N1 O6,CC(=O)OC1=C(C(=CC(=O)c2ccc(Cl)cc2)C(=O)c2ccc(Cl)cc2)C2(C(=O)N(Cc3ccccc3)c3ccc(Cl)cc23)C(=O)c2ccccc12,5.213429259999998
5212,DIYCEW,C42 H30 F1 N1 O5,CCOC1(OC2=C(C(=C1)C(=O)c1ccccc1)C1(C(=O)N(Cc3ccccc3)c3ccc(F)cc13)C(=O)c1ccccc21)c1ccccc1,5.8490872099999995
5213,DIYDOH,C28 H20 N2,c1ccc(cc1)N=C(C#CC(=Nc1ccccc1)c1ccccc1)c1ccccc1,6.03194772
5214,DIYHID,C24 H25 N5 O3,CC(C)C(NC(C)=O)C(=O)N1N=C(C(=O)NC1C1=CNc2ccccc12)c1ccccc1,6.09915984
5215,DIYJAX,C21 H22 N2 O2,CC(C)c1cc(N2CCCCC2)c2C(=O)c3ccccc3C(=O)c2n1,5.617790449999999
5216,DIYLEE,C22 H24 N4 O4,CN(C)CCN1C(=O)c2ccc3C(=O)N(CCN(C)C)C(=O)c4ccc(C1=O)c2c34,4.77940767
5217,DIYLII,C26 H32 N4 O4,CCN(CC)CCN1C(=O)c2ccc3C(=O)N(CCN(CC)CC)C(=O)c4ccc(C1=O)c2c34,4.80689117
5218,DIYLOO,C24 H28 N4 O4,CN(C)CCCN1C(=O)c2ccc3C(=O)N(CCCN(C)C)C(=O)c4ccc(C1=O)c2c34,4.59110489
5219,DIYLUU,C30 H40 N4 O4,CC(C)N(CCN1C(=O)c2ccc3C(=O)N(CCN(C(C)C)C(C)C)C(=O)c4ccc(C1=O)c2c34)C(C)C,4.52879082
5220,DIYMAB,C28 H32 N4 O4,O=C1N(CCCN2CCCC2)C(=O)c2ccc3C(=O)N(CCCN4CCCC4)C(=O)c4ccc1c2c34,4.8705658099999996
5221,DIYMAZ,C31 H28 N6 O3,CCOC(=O)C1=CN(C(C2=CN(C)c3ccccc23)C2=C1C(=O)N(C)c1ccccc21)C1=NN(CC)C=C1C#N,5.61207605
5222,DIYMUU,C32 H32 O9,CC(C)Oc1cc(OCc2ccccc2)c(cc1OC(C)C)C1=Cc2c(OC(C)=O)cc(OC(C)=O)cc2OC1=O,5.6387432099999995
5223,DIYREJ,C14 H16 O6 S2,COC(=O)CCSC1=CC(=O)C=C(SCCC(=O)OC)C1=O,5.296423979999999
5224,DIYRIN,C18 H24 O2 S2,O=C1C=C(SC2CCCCC2)C(=O)C=C1SC1CCCCC1,5.22159268
5225,DIYROT,C14 H16 O6 S2,COC(=O)CCSC1=CC(=O)C(=CC1=O)SCCC(=O)OC,5.2599607299999995
5226,DIYRUZ,C16 H20 O4 S2,COC(=O)CCSC1=CC(=O)C=C(SC2CCCCC2)C1=O,5.3505746400000005
5227,DIYSAG,C16 H20 O4 S2,COC(=O)CCSC1=CC(=O)C(=CC1=O)SC1CCCCC1,5.2591443899999994
5228,DIYTOW,C11 H10 O2 S1,COC(=O)CC1=C2C=CC=CC2=CS1,5.24989251
5229,DIYTUC,C29 H27 N3 O4,CCN(CC)c1ccc2C=C(C(=O)Oc2c1)C1=NN(C(C1)c1ccccc1)c1ccc(cc1)C(O)=O,4.85315052
5230,DIYWEO,C34 H31 N3 O9,CC(=O)OCC(OC(C)=O)C1OC2C(C1OC(C)=O)[N+]1=C(N2c2ccccc2)N(C(=C(C1=O)c1ccccc1)[O-])c1ccccc1,5.71112549
5231,DIYWIS,C27 H26 N2 O7 S2,CC(=O)OCC(OC(C)=O)C1OC2C(C1OC(C)=O)[N+]1=C(SC(=C1[S-])c1ccccc1)N2c1ccccc1,4.83029296
5232,DIYXUH,C23 H21 N5 O1,CN1N(c2ccccc2)C(=O)C(=C1C)N=Cc1ccnc(c1)c1cc(C)ccn1,5.92310219
5233,DIZDUO,C47 H41 N3 O7 S1,COc1ccc(cc1)N(c1ccc(OC)cc1)c1ccc2N(c3ccc(OC)cc3)c3ccc(cc3S(=O)(=O)c2c1)N(c1ccc(OC)cc1)c1ccc(OC)cc1,5.60391263
5234,DIZLAB,C26 H19 N3 O1,COc1ccc(cc1)C#Cc1nc2ccccc2nc1C1=CN(C)c2ccccc12,5.396289769999999
5235,DIZLUU,C30 H31 N1 O3,COC(=O)C1(C)CCCC2(C)C1CC(=O)c1cc(N)c(cc21)c1ccc(cc1)c1ccccc1,5.86378136
5236,DIZMAB,C28 H29 N1 O3,COC(=O)C1(C)CCCC2(C)C1CC(=O)c1cc(N)c(cc21)c1ccc2ccccc2c1,6.05589374
5237,DIZNAD,C23 H17 N1 O3,COC(=O)C(c1ccccc1)=C1OC(=Nc2ccccc2)c2ccccc12,5.89453023
5238,DIZNEF,C30 H26 N3 O5 P1,CCOC(=O)C1=C2C(=O)N(C)C(=C2C(=O)N(C)C1=O)N=P(c1ccccc1)(c1ccccc1)c1ccccc1,5.3494861799999995
5239,DIZQIO,C20 H16 I2 N6,CC1=NN(c2ccccc2)C(=C1I)N=NC1=C(I)C(=NN1c1ccccc1)C,5.57261955
5240,DIZQUA,C30 H20 N2 O1,O=C1N(c2cccc3cccnc23)C(=C(c2ccccc2)c2ccccc12)c1ccccc1,5.96800097
5241,DIZRAH,C25 H18 N2 O1,CC1=C(N(C(=O)c2ccccc12)c1cccc2cccnc12)c1ccccc1,5.92500698
5242,DIZROU,C25 H16 N4 O1,O=C1C(=C(c2ccccn2)C(=C1c1ccccn1)c1ccccn1)c1ccccn1,5.16254397
5243,DIZROV,C7 H6 F5 N1 S1 Se1,NC(=[Se])c1ccc(cc1)S(F)(F)(F)(F)F,5.198462999999999
5244,DIZRUA,C25 H16 N4 O2,O=C1C(=C(c2ccccn2)C2(OC12c1ccccn1)c1ccccn1)c1ccccn1,5.77071842
5247,DIZTEN02,C7 H6 F5 N1 S2,NC(=S)c1ccc(cc1)S(F)(F)(F)(F)F,5.9350752
5248,DIZTEO,C40 H29 Br1 O4,COCOc1ccc2ccccc2c1c1c(OCOC)c2ccc3ccc4ccc5ccc(Br)cc5c4c3c2c2ccccc12,5.63547784
5249,DIZTOX,C17 H14 F5 N1 O2 S2,COc1ccc(OC)c(c1)C1=CSC(=N1)c1ccc(cc1)S(F)(F)(F)(F)F,6.091812780000001
5250,DIZVAL,C22 H20 N2 O1,CCC1=C(CC)c2ccccc2C(=O)N1c1cccc2cccnc12,5.84745453
5251,DIZVUF,C14 H12 Cl2 N8 S5,CN1N=C(C)C2=C(SN=C12)C(Cl)=NSSSN=C(Cl)C1=C2C(=NN(C)C2=NS1)C,5.5086727799999995
5252,DIZWAM,C16 H14 Cl3 N9 S5,CN1N=C(C)C(=C1N)C(SSN=C(Cl)C1=C2C(=NN(C)C2=NS1)C)=C(Cl)N=C1SSN=C1Cl,4.61178553
5253,DIZWOA,C38 H38 N2 O9,COC(=O)C1=C(C(=O)OC)C(=C(C(=O)OC)C2(N1c1ccc(cc1)C(C)(C)C)C(=O)N(Cc1ccccc1)c1ccc(C)cc21)C(=O)OC,5.97752496
5254,DIZXIV,C20 H18 O3,CC1C(=C(C)C(=O)C1(O)c1ccccc1)C(=O)c1ccccc1,6.494269149999999
5255,DIZZIX,C14 H4 F12,FC(F)(F)C1=CC2=C(C(=C(C2=CC=C1)C(F)(F)F)C(F)(F)F)C(F)(F)F,5.327444959999999
5256,DIZZUJ,C14 H4 F12,FC(F)(F)C1=CC(=CC2=C(C=C(C2=C1)C(F)(F)F)C(F)(F)F)C(F)(F)F,5.538061089999999
5257,DLMETA01,C5 H11 N1 O2 S1,[NH3+]C(CCSC)C(=O)[O-],6.79985301
5258,DLTYRS,C9 H11 N1 O3,[NH3+]C(Cc1ccc(O)cc1)C(=O)[O-],7.2556437
5259,DMAFUL,C10 H16 N2,CN(C)C(N(C)C)=C1C=CC=C1,6.20310734
5260,DMANPQ10,C12 H11 N1 O2,CN(C)C1=CC(=O)C(=O)c2ccccc12,5.457243269999999
5261,DMANTR01,C16 H14,Cc1c2ccccc2c(C)c2ccccc12,5.3497582999999995
5262,DMAZAZ,C11 H12 N2,CN(C)C1=NC=C2C=CC=C2C=C1,5.7590175299999995
5263,DMBCRY,C24 H16,Cc1c2cccc3ccc4c(C)c5cccc6ccc1c(c56)c4c23,4.40742803
5264,DMBTBT10,C15 H12 O4 S1,COc1ccc2c(OS3=C2c2ccc(OC)cc2O3)c1,5.59112328
5265,DMBZQU,C8 H8 O2,CC1=C(C)C(=O)C=CC1=O,6.776723329999999
5266,DMCOLC10,C21 H25 N1 O5,CNC1CCc2cc(OC)c(OC)c(OC)c2C2=CC=C(OC)C(=O)C=C12,5.73425517
5267,DMEBQU01,C8 H8 O2,CC1=CC(=O)C(=CC1=O)C,6.7889684500000005
5268,DMETHF10,C7 H8 O1 S2,CC(=O)C=C1SSC(=C1)C,5.89425812
5269,DMFUSC01,C21 H18 O1,CC1=CC(C=C(C)C1=O)=C(c1ccccc1)c1ccccc1,5.1200942099999995
5270,DMHABB10,C26 H28 Br1 N1 O7 S1,COc1ccc2CCC34N(C)CCC3(CC(=O)C(=C4OC)OC)c2c1OS(=O)(=O)c1ccc(Br)cc1,6.32338165
5271,DMHELI,C32 H22,Cc1ccc2c(ccc3ccc4ccc5ccc6ccc7c(C)cccc7c6c5c4c23)c1,5.7497656600000004
5272,DMHPZP10,C18 H16 N2 O2,CC1CN2N(C=C1C)C(=O)c1cc3ccccc3cc1C2=O,6.076846509999999
5273,DMOXAN01,C8 H16 N2 S2,CC(C)NC(=S)C(=S)NC(C)C,5.9494972200000005
5274,DMPHNZ,C14 H12 N2 O2,COc1cccc2N=C3C(=CC=CC3=Nc12)OC,5.27547122
5275,DMPIXZ,C10 H10 Br1 N3 O1,CC1(C)OC(N=N1)=Nc1ccc(Br)cc1,6.0292265899999995
5276,DMPTZX,C17 H19 N1 O8 S1,COC(=O)C1=C(C(=O)OC)C(=C(C(=O)OC)C2(C)SC=C(C)N12)C(=O)OC,5.5127545
5277,DMTAZS,C4 H7 N3 S1,CN1[N-][N+](=CC1=S)C,5.89915617
5278,DMTBQU,C8 H8 O2,CC1=CC(=O)C=C(C)C1=O,6.74706292
5279,DMTHIO10,C12 H16 O2 S2,CC1(C)CSC(C1=O)=C1SCC(C)(C)C1=O,5.21533405
5280,DMTPCP10,C27 H26 P2,CP(=C=P(C)(c1ccccc1)c1ccccc1)(c1ccccc1)c1ccccc1,5.88854373
5281,DMTRZT,C4 H7 N3 S1,CN1N=CC(=S)N1C,6.10324156
5282,DNPOQV10,C20 H10 O4,O=C1C=C(C(=O)c2ccccc12)C1=CC(=O)c2ccccc2C1=O,6.40066199
5283,DOBHUA,C24 H19 N3 O3,CCOC(=O)C1(CC21C(=O)N(C)c1ccccc21)C(c1ccccc1)=C(C#N)C#N,6.00528057
5285,DOBNUF,C19 H16 O4,COc1cc2C=CC(C)(C)Oc2c2Oc3ccccc3C(=O)c12,5.863237140000001
5286,DOBPES,C21 H17 F3 N4,CC1=CC=CN2C(=CN=C12)C(Nc1cc(ccn1)C(F)(F)F)c1ccccc1,5.07737233
5287,DOBTET,C16 H23 N3 O4,CN(C)C(=NC=CC=CC=C1C(=O)OC(C)(C)OC1=O)N(C)C,4.489606419999999
5288,DOBXUQ,C27 H23 N1 O1,C1CN(CCO1)C1c2ccccc2c2cc3ccccc3c(c3ccccc3)c12,6.21453612
5293,DOCBII,C32 H28 Br2,Cc1cc(C)c(c(C)c1)c1c2ccc(Br)cc2c(c2ccc(Br)cc12)c1c(C)cc(C)cc1C,5.267852039999999
5294,DOCBOO,C40 H34 S2,Cc1cc(C)c(c(C)c1)c1c2ccc(cc2c(c2ccc(cc12)C1=CC=CS1)c1c(C)cc(C)cc1C)C1=CC=CS1,4.97696232
5296,DOCKUB,C30 H30 N2 O4,COC(=O)C1=CC=CC2C3N(Cc4ccccc4)C(C=CC=C3C(=O)OC)C1N2Cc1ccccc1,6.40828117
5297,DOCLOZ,C21 H17 N1 S1,Cc1ccc(cc1C)N=CC1=CC=C(S1)C#Cc1ccccc1,5.64309703
5298,DOCMAM,C13 H17 N3 S1,CC(C)C=C(C=NNC(N)=S)c1ccccc1,6.07983976
5299,DOCMEO,C18 H8 N6 O4,O=C1N(c2cnccn2)C(=O)c2cc3C(=O)N(c4cnccn4)C(=O)c3cc12,6.031675609999999
5300,DOCMUE,C20 H8 Cl2 N4 O4,Clc1cc(ccn1)N1C(=O)c2cc3C(=O)N(c4ccnc(Cl)c4)C(=O)c3cc2C1=O,5.76854151
5301,DOCMUG,C44 H36 Br1 Cl1,CC(C)(C)c1cc2ccc3cc(cc4c3c2c(c1)c1c(c2ccccc2)c2cc(Cl)c(Br)cc2c(c2ccccc2)c41)C(C)(C)C,5.514115070000001
5302,DOCNAL,C20 H10 N4 O4,O=C1N(c2ccncc2)C(=O)c2cc3C(=O)N(c4ccncc4)C(=O)c3cc12,6.19956986
5303,DOCPAP,C25 H17 N3 S1,C(N1c2cnc3ccccc3c2Sc2cc3ccccc3nc12)c1ccccc1,5.51601986
5304,DOCPET,C19 H13 N3 S1,CN1c2nc3ccccc3cc2Sc2ccc3cccnc3c12,5.577517589999999
5306,DOCXEA,C26 H12 S4,S1c2ccccc2C2=C1c1cc3cc4SC5=C(Sc6ccccc56)c4cc3cc1S2,4.9889353299999994
5307,DOCXIE,C22 H12 S2,S1c2ccccc2C2=C1c1cc3cc4ccccc4cc3cc1S2,4.86022548
5308,DOCYIF,C30 H30 N2 O2,COc1ccc(NC2(c3cccc4cccc(c34)C2=Nc2ccc(OC)cc2)C(C)(C)C)cc1,5.55302735
5309,DOCYUR,C28 H24 F2 N2,CC(C)(C)C1(Nc2ccc(F)cc2)c2cccc3cccc(c23)C1=Nc1ccc(F)cc1,5.69071696
5310,DOCZEC,C38 H46 N2,Cc1cc(C)c(N=C2c3cccc4C(C(C=C(C2=Nc2c(C)cc(C)cc2C)c34)C(C)(C)C)C(C)(C)C)c(C)c1,5.695070769999999
5311,DODDAB02,C18 H18 N4 O1,Cc1ccc(NN=C2C(=NN(c3ccccc3)C2=O)C)c(C)c1,5.5013257200000005
5312,DODGIP,C49 H70 N2 O5,CCCOc1ccc(cc1)N=Nc1ccc(cc1)C(=O)OCCCCCC(=O)OC1CCC2(C)C3CCC4(C)C(CCC4C3CC=C2C1)C(C)CCCC(C)C,5.80881437
5313,DODGOV,C50 H72 N2 O5,CCCCOc1ccc(cc1)N=Nc1ccc(cc1)C(=O)OCCCCCC(=O)OC1CCC2(C)C3CCC4(C)C(CCC4C3CC=C2C1)C(C)CCCC(C)C,6.13181351
5314,DODGUB,C52 H76 N2 O5,CCCCCCOc1ccc(cc1)N=Nc1ccc(cc1)C(=O)OCCCCCC(=O)OC1CCC2(C)C3CCC4(C)C(CCC4C3CC=C2C1)C(C)CCCC(C)C,5.85044778
5315,DODHAI,C53 H78 N2 O5,CCCCCCCOc1ccc(cc1)N=Nc1ccc(cc1)C(=O)OCCCCCC(=O)OC1CCC2(C)C3CCC4(C)C(CCC4C3CC=C2C1)C(C)CCCC(C)C,5.76337135
5316,DODHEM,C54 H80 N2 O5,CCCCCCCCOc1ccc(cc1)N=Nc1ccc(cc1)C(=O)OCCCCCC(=O)OC1CCC2(C)C3CCC4(C)C(CCC4C3CC=C2C1)C(C)CCCC(C)C,5.80364421
5317,DODKUF,C16 H14 Br2 F1 N3 O2,CCCCCCN1C(=O)c2nc3c(Br)cc(F)c(Br)c3nc2C1=O,5.69044484
5318,DODLAM,C16 H15 Br2 N3 O2,CCCCCCN1C(=O)c2nc3c(Br)ccc(Br)c3nc2C1=O,5.5203736899999996
5319,DODLEQ,C16 H13 Br2 Cl2 N3 O2,CCCCCCN1C(=O)c2nc3c(Br)c(Cl)c(Cl)c(Br)c3nc2C1=O,5.752214690000001
5320,DODLIU,C16 H13 Br2 F2 N3 O2,CCCCCCN1C(=O)c2nc3c(Br)c(F)c(F)c(Br)c3nc2C1=O,5.872216890000001
5321,DODXAY,C32 H32 N4 O9,CCOC(=O)C1=C(NC(=C1C(=O)OCC)C1=CC=C(O1)C1=C(C(=O)OCC)C(=C(N1)C1=CC=CN1)C(=O)OCC)C1=CC=CN1,5.452345220000001
5322,DODXOM,C32 H30 N2 O9 S2,CCOC(=O)C1=C(NC(=C1C(=O)OCC)C1=CC=CS1)C1=CC=C(O1)C1=C(C(=O)OCC)C(=C(N1)C1=CC=CS1)C(=O)OCC,5.20825909
5323,DODXUS,C48 H68 N2 O5,CCOc1ccc(cc1)N=Nc1ccc(cc1)C(=O)OCCCCCC(=O)OC1CCC2(C)C3CCC4(C)C(CCC4C3CC=C2C1)C(C)CCCC(C)C,5.89806771
5324,DODZII,C20 H12 N2 O1,O=C1c2ccccc2C2=CC=CC3=NC(=C1N23)c1ccccc1,5.79874616
5325,DOFBIM,C21 H13 N1,c1cc2ccc3ccc(c4ccncc4)c4ccc(c1)c2c34,5.642824920000001
5326,DOFBOS,C23 H17 N1,C(Cc1ccc2ccc3cccc4ccc1c2c34)c1ccncc1,5.7486772
5327,DOFDIL,C21 H12 O1,O=C1c2cccc3cccc(c23)c2c3ccccc3ccc12,5.15819015
5328,DOFGUD,C16 H14 N4 O2,Nc1ccc(NC2=C(Nc3ccc(N)cc3)C(=O)C2=O)cc1,5.801195180000001
5329,DOFKAN,C21 H26 N2 O2,CN(C)C=NC1=C2CC(CC(=C2Oc2ccccc12)C=O)C(C)(C)C,5.36145919
5330,DOFLES,C16 H15 N1 O5,CCOC(=O)C1=CC2=C(C(=O)O1)c1cc(OC)ccc1N2C,5.84827088
5331,DOFLIW,C15 H12 Cl1 N1 O4,CCOC(=O)C1=CC2=C(C(=O)O1)c1ccc(Cl)cc1N2C,5.86214868
5332,DOFLUI,C17 H19 N1 O4,CN1c2ccccc2C(=C1C=CC(=O)OC(C)(C)C)C(O)=O,5.90813593
5333,DOFPUM,C22 H22 N2 O3 S1,CCCN1CC23C(N(C)c4ccccc24)S(=O)(=O)C(=C3C1=O)c1ccccc1,6.02460065
5334,DOFQIB,C19 H17 N1 O2 S1,Cc1cccc2ccc([nH+]c12)C(Sc1ccccc1)=C([O-])CO,5.59112328
5335,DOFQOH,C23 H25 N1 O2 S1,CCCCC(O)C([O-])=C(Sc1ccccc1)c1[nH+]c2c(C)cccc2cc1,5.44282123
5336,DOFZAB,C35 H40 O2,COc1ccc(c2c(cc3C4OC(C=C4)c3c12)C12CC3CC(CC(C3)C1)C2)C12CC3CC(CC(C3)C1)C2,5.784596239999998
5337,DOFZEF,C38 H40,C1C2CC3CC1CC(C2)(C3)c1cccc2c3ccc4ccccc4c3cc(c12)C12CC3CC(CC(C3)C1)C2,5.79656924
5338,DOFZIJ,C36 H38,C1C2CC3CC1CC(C2)(C3)c1ccc2ccc3cccc4cc(c1c2c34)C12CC3CC(CC(C3)C1)C2,5.501325710000001
5339,DOFZUU,C17 H16 N2 O1 S1,CCC(CC=O)C1CSc2ccccc2C1=C(C#N)C#N,5.80146729
5340,DOGBUX,C15 H10 I1 N1 O1,Ic1c2ccccc2c[n+]([O-])c1c1ccccc1,6.017797800000002
5341,DOGCAE,C48 H30,C=C(C(=Cc1cc2ccccc2c2ccccc12)C#Cc1cc2ccccc2c2ccccc12)c1cc2ccccc2c2ccccc12,5.58622524
5342,DOGCEI,C36 H24,C1C(C(=Cc2c1ccc1ccccc21)C#Cc1cccc2ccccc12)c1cccc2ccccc12,5.22757919
5343,DOGCUY,C22 H15 N3 O2 S1,O=C1CC(C2CSc3ccccc3C2=C(C#N)C#N)C(=O)N1c1ccccc1,5.652076790000001
5344,DOGFOX,C33 H25 N1 O2,CCOC(=O)C1=C(N2C(=Cc3ccccc3)C=C(c3ccccc3)c3cccc1c23)c1ccccc1,5.08308673
5345,DOGHUF,C24 H22 O4,CC(C)CC(=O)OC1OC(C(=O)C=C1)c1c2ccccc2cc2ccccc12,5.48418254
5346,DOGPEX,C41 H24 O1,O1c2ccccc2C2(c3ccccc13)c1ccccc1c1ccc(cc21)c1ccc2ccc3cccc4ccc1c2c34,5.56908207
5347,DOGPIB,C41 H24,c1ccc2c(c1)c1ccccc1C12c2ccccc2c2ccc(cc12)c1ccc2ccc3cccc4ccc1c2c34,5.44690294
5348,DOGPOH,C49 H28 O1,O1c2c3ccccc3ccc2C2(c3ccc4ccccc4c13)c1ccccc1c1ccc(cc21)c1ccc2ccc3cccc4ccc1c2c34,5.51493141
5350,DOGRUN,C21 H7 F7 O2,COc1ccc2c(F)c(F)c(F)c3Oc4ccc5c(F)c(F)c(F)c(F)c5c4c1c23,5.24880407
5351,DOGSAU,C21 H10 F4 O1,Fc1c(F)c(F)c2c(ccc3OCc4ccc5ccccc5c4c23)c1F,5.71983314
5352,DOGSEY,C21 H11 F3 O2,COc1ccc2c(F)c(F)c(F)c3Oc4ccc5ccccc5c4c1c23,5.4901690499999996
5353,DOGSIC,C22 H13 F3 O2,COc1ccc2c(F)c(F)c(F)c3OCc4ccc5ccccc5c4c1c23,5.80690957
5354,DOGSOJ,C12 H10 N2,CN1C=CC=C2C=C3C=CC=NC3=C12,4.76416929
5355,DOGSUP,C13 H10 N2 O2,CN1C=CC=C2C1=C1N=CC=CC1=C2C(O)=O,4.9075733
5356,DOGTEB,C23 H17 N3,C(c1ccccc1)C1=CN2C(=Nc3ccccc23)N=C1c1ccccc1,5.89670714
5357,DOGTIF,C22 H15 N3,c1ccc(cc1)C1=NC2=Nc3ccccc3N2C(=C1)c1ccccc1,5.66296134
5358,DOGVED,C27 H34 B1 F6 N4 O3 P1,CC(C)OP(=O)(NCCNc1c(F)c(F)c(c(F)c1F)C1=C2[N+](=C(C)C=C2C)[B-](F)(F)N2C(=CC(=C12)C)C)OC(C)C,4.6700178999999995
5359,DOGVOM,C14 H13 I1 O1,CC(C)=C(C)C1=C(I)C(=O)c2ccccc12,5.77262322
5360,DOGVUS,C20 H26 O1,Cc1cc2C(=O)C3=C(C(CC3(C)C)C(C)(C)C)c2cc1C,5.8722169
5361,DOGWAZ,C16 H9 I1 O2,IC1=C(C(=O)c2ccccc2)c2ccccc2C1=O,5.57833393
5362,DOGWEE,C34 H34 B1 F10 N1 O1,CC(C)C1C(C=[N+]2C(C)(C)CCCC2(C)C)C(O[B-]1(c1c(F)c(F)c(F)c(F)c1F)c1c(F)c(F)c(F)c(F)c1F)c1ccccc1,6.44311175
5363,DOGWII,C31 H35 B1 F10 N2,CC(C)C1C(=CN2C(C)(C)CCCC2(C)C)C(=[NH+][B-]1(c1c(F)c(F)c(F)c(F)c1F)c1c(F)c(F)c(F)c(F)c1F)C(C)C,6.456173209999999
5364,DOGWOO,C34 H39 B1 F10 N2,CC(C)C1C(=CN2C(C)(C)CCCC2(C)C)C(=[NH+][B-]1(c1c(F)c(F)c(F)c(F)c1F)c1c(F)c(F)c(F)c(F)c1F)C1CCCCC1,6.42760126
5365,DOGWUU,C33 H39 B1 F10 N2,CCCCCC1=[NH+][B-](C(C(C)C)C1=CN1C(C)(C)CCCC1(C)C)(c1c(F)c(F)c(F)c(F)c1F)c1c(F)c(F)c(F)c(F)c1F,6.5835225
5366,DOGXAB,C29 H31 B1 F10 N2,CC(C)C1C(=CN2C(C)(C)CCCC2(C)C)C(=[NH+][B-]1(c1c(F)c(F)c(F)c(F)c1F)c1c(F)c(F)c(F)c(F)c1F)C,6.55386209
5367,DOGXIJ,C22 H14 B1 F10 N1,CC(C)C1C=C[B-]([N+]2=C1C=CC2)(c1c(F)c(F)c(F)c(F)c1F)c1c(F)c(F)c(F)c(F)c1F,6.4893711
5371,DOGZAD,C21 H14 N4,c1ccc(cc1)C1=NC2=Nc3ncccc3N2C(=C1)c1ccccc1,5.67738338