,ID,formula,smiles,HOMO_LUMO_gap
7247,FAGGAY,C36 H24 N2 O2 S3,O=S(=O)(c1ccc(cc1)N1c2ccccc2Sc2ccccc12)c1ccc(cc1)N1c2ccccc2Sc2ccccc12,5.93643576
7248,FAGGIE,C13 H13 N3 O1 S1,COc1ccccc1NC(=S)Nc1ccccn1,6.1903179900000005
7249,FAGQAG,C26 H22 N6,C(C1=CC=CN1)C1=CC=C(N1)c1nc2ccccc2nc1C1=CC=C(CC2=CC=CN2)N1,5.28717211
7250,FAGQEM,C34 H30 N6 S4,CCCCCCN1C2=C(SC(=C2)C=C(C#N)C#N)C2=C1C1=C(S2)C2=C(S1)C1=C(C=C(S1)C=C(C#N)C#N)N2CCCCCC,4.11626622
7251,FAGQIQ,C38 H26 N2,Cc1cc2c3N4C(=CN=C4C(=C(c4ccccc4)c3c1)c1ccccc1)C(=C2c1ccccc1)c1ccccc1,5.57751759
7252,FAGQOV,C5 H8 N2 O3 S1,C[N+]1=CN(CS(=O)(=O)[O-])C=C1,6.43005029
7253,FAGSEO,C26 H27 O2 P1,CC(C(=O)C1CCOCC1)=P(c1ccccc1)(c1ccccc1)c1ccccc1,5.84255648
7255,FAHKEF,C19 H19 N3 O1,Cc1ccc(cc1)N1N=C(C)C(=C(C)Nc2ccccc2)C1=O,5.84174014
7256,FAHKIJ,C20 H21 N3 O1,Cc1ccc(cc1)N1N=C(C)C(=C(C)Nc2ccccc2C)C1=O,5.9285444599999995
7257,FAHKIL,C10 H6 Br2 N4,Brc1ccnc(c1)N=Nc1cc(Br)ccn1,6.566107209999999
7258,FAHKOP,C20 H21 N3 O1,Cc1ccc(cc1)N1N=C(C)C(=C(C)Nc2cccc(C)c2)C1=O,5.88201299
7259,FAHKUV,C20 H21 N3 O1,Cc1ccc(NC(C)=C2C(=NN(c3ccc(C)cc3)C2=O)C)cc1,5.85942755
7260,FAHLAC,C19 H18 Cl1 N3 O1,Cc1ccc(cc1)N1N=C(C)C(=C(C)Nc2ccccc2Cl)C1=O,5.62323272
7261,FAHNIL,C20 H25 F3 O1,CC1=C(C=CC(=CC=CC(C)=CC=O)C(F)(F)F)C(C)(C)CCC1,5.403636840000001
7262,FAHPOU,C27 H23 N1 O1,COc1ccc(cc1)C=Cc1ccc(cc1)N(c1ccccc1)c1ccccc1,6.22759759
7263,FAHQOU,C14 H11 N1 O4 S2,COC(=O)c1ccccc1S1=NS(=O)(=O)c2ccccc12,6.49590184
7264,FAHREL,C34 H34 N2 O2 S2,Cc1cc(c2OC3(CN4c5ccccc5Sc1c24)C=C(C(=O)C1=C3Sc2ccccc2N1)C(C)(C)C)C(C)(C)C,4.92689338
7265,FAHTEO,C18 H11 Cl1,Clc1c2ccccc2cc2cc3ccccc3cc12,4.508110159999999
7266,FAHTIS,C18 H11 Br1,Brc1c2ccccc2cc2cc3ccccc3cc12,4.535593659999998
7267,FAHTOY,C18 H10 Cl2,Clc1c2ccccc2cc2c(Cl)c3ccccc3cc12,4.59600294
7268,FAHWOC,C17 H17 P1,CP(C)(c1ccccc1)=C1C=Cc2ccccc12,5.11927787
7269,FAHWUI,C27 H21 P1,c1ccc(cc1)P(c1ccccc1)(c1ccccc1)=C1C=Cc2ccccc12,4.81995263
7270,FAHZAP,C19 H20 O7,CCc1c(C)cc2C(=O)C3=C(C(=O)c2c1O)C(O)(OC3(C)C)C(=O)OC,6.0101786100000005
7271,FAJBOK,C22 H22 N2 O2,CCCC1=C(CCC)c2ccccc2N2N1C(=O)c1ccccc1C2=O,5.95140202
7272,FAJGIG,C21 H16 O2,COc1ccc(cc1)C1=C2C=CC=C2C(=CO1)c1ccccc1,5.4594201799999995
7273,FAJGIJ,C14 H14 N4 O3,COc1ccc(C=NC(C#N)=C(N)C#N)c(OC)c1OC,5.62459329
7274,FAJGOM,C18 H16 O2,CC(C)C1=COC(=C2C(=CC=C12)C=O)c1ccccc1,5.54486393
7275,FAJMAE,C13 H13 N5 O5 S2,CON=C(C(=O)NC1C2SCC=C(N2C1=O)C(O)=O)C1=CSC(=N1)N,6.22106685
7276,FAJMUB,C28 H19 N3 O2,Cc1ccc(cc1)C(=O)c1c2C(=NN(c3ccccc3)c2nc2c3ccccc3C(=O)c12)C,5.96446349
7277,FAJNAI,C27 H16 Cl1 N3 O2,CC1=NN(c2ccccc2)c2nc3c4ccccc4C(=O)c3c(C(=O)c3ccc(Cl)cc3)c12,5.87575438
7278,FAJTIT,C12 H16 N2 S2,CCN(CC)C(=S)NC(=S)c1ccccc1,6.0942618
7279,FAJTOC,C19 H15 N3,Cc1ccc(cc1)C1=CC=NC2=C(C=NN12)c1ccccc1,5.742690700000001
7280,FAJVER,C14 H11 F4 N3,Cc1cc(C)c(N=Nc2c(F)c(F)nc(F)c2F)c(C)c1,6.191950670000001
7281,FAJWEU,C19 H23 N3 Se1,CCN(CC)C(=[Se])N=C(Nc1ccc(C)cc1)c1ccccc1,5.11356348
7282,FAKBAU,C18 H17 N3 O1 S2,COCC1CCCN1C1=CC=C(S1)C1=CC=C(S1)C=C(C#N)C#N,4.41885682
7283,FAKDUS,C21 H24 N4 O1,Cc1cc(C)c(N2C=CN(C2=NN=O)c2c(C)cc(C)cc2C)c(C)c1,6.87577277
7284,FAKFAA,C27 H36 N4 O1,CC(C)c1cccc(C(C)C)c1N1C=CN(C1=NN=O)c1c(cccc1C(C)C)C(C)C,6.85536424
7285,FAKPUF,C19 H12 N4 O1,COc1cc2N(C)c3ccccc3c2cc1C(C#N)=C(C#N)C#N,5.0605012799999995
7286,FAKTUH,C16 H14 N2 O2,Oc1ccccc1C1=NCCN=C1c1ccccc1O,6.54651502
7287,FAKTUJ,C12 H10 N2 O1 S1,CC1=C(SC=C1)C=CC(=O)c1cnccn1,5.73833688
7288,FAKVAP,C20 H14 N2 O2,Oc1ccccc1c1nc2ccccc2nc1c1ccccc1O,5.99085853
7289,FAKVET,C20 H20 N2 O2,Oc1ccccc1C1=NC2CCCCC2N=C1c1ccccc1O,6.5293718400000005
7290,FAKVOD,C22 H18 N2 O4,COc1cccc(c1O)c1nc2ccccc2nc1c1cccc(OC)c1O,5.93806844
7291,FAKVUJ,C22 H24 N2 O4,COc1cccc(c1O)C1=NC2CCCCC2N=C1c1cccc(OC)c1O,6.231135060000001
7292,FAKWAQ01,C20 H16 N2 O2,Oc1ccccc1C1Nc2ccccc2N=C1c1ccccc1O,5.96473561
7293,FAKWIY,C17 H15 N3 O2,CC1=NN=C(C)N1C(=Cc1cccc2ccccc12)C(O)=O,6.047458209999999
7294,FAKWUJ,C30 H32 O9,COc1cc(ccc1O)C1Oc2c(OC)cc(C=CC=O)cc2C1COC(=O)C12CCC(C)(C(=O)O1)C2(C)C,5.92555121
7295,FAKWUL,C19 H14 Br1 N3 O1,Oc1ccc(Br)cc1C=Nc1ccc(cc1)N=Nc1ccccc1,5.6678594
7296,FAKYOH,C11 H11 N3 O1 S2,CSC(=S)NN=C1C(=O)N(C)c2ccccc12,5.49751612
7297,FAKZEZ,C26 H17 Br1 O1,Brc1ccc(cc1)C=Cc1c2ccccc2c(C2=CC=CO2)c2ccccc12,5.13261145
7298,FAKZOI,C20 H17 N3 O3 S1,CN1C=CN=C(C1=O)C1=CN(c2ccccc12)S(=O)(=O)c1ccc(C)cc1,5.91385031
7299,FAKZOJ,C31 H25 Br1,Cc1cc(C)c(c(C)c1)c1c2ccccc2c(C=Cc2ccc(Br)cc2)c2ccccc12,5.45724327
7300,FALBAY,C36 H40 N2 O4,CCCCCCN1C(=O)C2=C(N(CCCCCC)C(=O)C2=C1C1=C(C)c2ccccc2O1)C1=C(C)c2ccccc2O1,4.58294147
7301,FALJIM,C31 H26 N4 O3,COC(=O)C1(C(Nc2ccccc2)C2=C(N=C3C=CC=CN3C2=O)N1Cc1ccccc1)c1ccccc1,5.48554312
7302,FALLOW,C29 H28 N2 O3 S1,COC1=CC=C(S1)C(NC(=O)c1ccccc1)C(C)C(NC(=O)c1ccccc1)c1ccccc1,6.19521604
7303,FALNAI,C23 H19 F3 N2 O1,CN1c2ccccc2C(C)(C)C1=CC=C1C=Nc2cc(ccc2C1=O)C(F)(F)F,4.492599670000001
7304,FALNIP,C15 H12 O4,COc1ccc(cc1)C=C1C=C2OCOC2=CC1=O,5.274382770000001
7305,FALPAJ,C11 H5 F6 N3 O1,FC(F)(F)C1=NC(=O)[C-]([n+]2ccccc2)C(=N1)C(F)(F)F,5.04118119
7306,FAMCIF,C13 H15 N3 S4,CSSC1=NC(=S)N(C(=N1)SC)c1c(C)cccc1C,6.106234799999999
7307,FAMHIK,C20 H22 N4 O2,Cc1ccc(cc1)C(C)(O)c1nnc(nn1)C(C)(O)c1ccc(C)cc1,5.99902195
7308,FAMLUC,C14 H6 F6 N2,Fc1cc(F)c(N=CC=Nc2c(F)cc(F)cc2F)c(F)c1,6.1797055499999995
7309,FAMMAJ,C14 H10 F2 N2,Fc1ccc(cc1)N=CC=Nc1ccc(F)cc1,6.03330829
7310,FAMQER,C17 H11 Cl2 N1 O1,Oc1cccc2ccc(C=Cc3cccc(Cl)c3Cl)nc12,5.8977956
7311,FAMQIV,C19 H17 N1 O3,COc1cc(OC)cc(C=Cc2ccc3cccc(O)c3n2)c1,5.93344251
7312,FAMVOF,C38 H25 N3,c1ccc(nc1)N(c1ccc(cc1)c1ccc(cc1)c1ccc2ccc3cccc4ccc1c2c34)c1ccccn1,5.501325710000001
7313,FAMVUL,C32 H21 N3,c1ccc(nc1)N(c1ccc(cc1)c1ccc2ccc3cccc4ccc1c2c34)c1ccccn1,5.42458961
7314,FAMWAS,C26 H17 N3,c1ccc(nc1)N(c1ccccn1)c1ccc2ccc3cccc4ccc1c2c34,5.4613249800000006
7315,FAMXAU,C22 H24 P2 S4,CC1=C(C2=CC=CS2)P(C)(=S)C(=C1C)C1=C(C)C(=C(C2=CC=CS2)P1(C)=S)C,5.62622598
7316,FAMXEY,C30 H28 P2 S6,CC1=C(C2=CC=C(S2)C2=CC=CS2)P(C)(=S)C(=C1C)C1=C(C)C(=C(C2=CC=C(S2)C2=CC=CS2)P1(C)=S)C,4.70974652
7317,FAMXIC,C31 H28 P2 S6,CC1=C(C2=CC=C(S2)C2=CC=CS2)P2(=S)CCCP3(=S)C(=C(C)C(=C3C2=C1C)C)C1=CC=C(S1)C1=CC=CS1,4.79110856
7318,FAMXID,C18 H16 N2 O3,Cc1ccc2N=C3N(CCC3(O)C(=O)c2c1)c1cccc(O)c1,5.6104433700000005
7319,FANDOQ,C25 H21 B1 F2 O2,F[B-]1(F)OC(=CC(=[O+]1)c1cc2CCc3ccc(CCc1cc2)cc3)c1ccccc1,5.37452066
7322,FANNUL,C14 H14,C1=CC=CC=CC=CC=CC=CC=C1,4.70022254
7323,FANTIY,C24 H18 O2,COc1c2ccccc2c(OC)c2c1ccc1ccc3ccccc3c21,5.0112486700000005
7324,FANTOE,C30 H22 N2 O2,NC(c1ccccc1)=C(c1ccccc1)C1=NC(=C(C(=O)O1)c1ccccc1)c1ccccc1,5.78677315
7325,FANWIA10,C18 H14 N2 O2,COC(=O)C(=Cc1ccc(cc1)C=Cc1ccccn1)C#N,5.2703010599999995
7327,FAPDAD,C26 H39 N5 O1,CN(C)CCN(C)Cc1cc(cc(N2N=C3C=CC=CC3=N2)c1O)C(C)(C)CC(C)(C)C,6.48828265
7328,FAPDIM,C56 H40 S1,S1C=CC(=C1c1ccc(cc1)C(c1ccccc1)=C(c1ccccc1)c1ccccc1)c1ccc(cc1)C(c1ccccc1)=C(c1ccccc1)c1ccccc1,5.82922291
7329,FAPDUV,C14 H10 N2 O5 S1,COC(=O)C1=C(N2C(=O)c3ccccc3N=C2S1)C(=O)OC,5.96827308
7330,FAPKEP,C23 H21 Cl1 N2,Cc1cc2NC(CC(=Nc2cc1C)c1ccc(Cl)cc1)c1ccccc1,6.09453391
7331,FAPLEN,C30 H30 O6,COc1ccc(C=CC(O)=C(Cc2ccccc2)C(=O)C=Cc2ccc(OC)c(OC)c2)cc1OC,5.254790570000001
7332,FAPLIR,C25 H26 O8,CCOC(=O)CC(=C(O)C=Cc1ccc(O)c(OC)c1)C(=O)C=Cc1ccc(O)c(OC)c1,5.205537960000001
7333,FAPMOY,C18 H11 Br1 N2,Brc1ccc(cc1)C1=CC2=CC=CC=CC2C1(C#N)C#N,5.662145
7334,FAPMUE,C19 H14 N2 O1,COc1ccc(cc1)C(C=C1C=CC=CC=C1)=C(C#N)C#N,4.89804931
7336,FAPNEP,C40 H30 P2,c1ccc(cc1)P1C(P(c2ccccc2)C1=C(c1ccccc1)c1ccccc1)=C(c1ccccc1)c1ccccc1,5.48880848
7337,FAPRUM,C12 H11 I1 N2 O2,COc1cc(NC(C)=O)c2ncccc2c1I,5.97670861
7338,FAPTAR,C20 H16 O4,COC(=O)C1=CC=C2C=CC=CC3=C2C(=C1C(=O)OC)C=CC=C3,5.62268849
7339,FAPXAV,C16 H14,C1C2=CC=CC=C1C1=CC=CC=C(C1)C=C2,5.6248654
7340,FAPXEZ,C17 H15 N1 O1,ON=CC1=C2CC(=CC=C1)C1=CC=CC=C(C1)C=C2,5.7130303
7341,FAPXUS,C24 H20 N4 S3,N#CC1=C(SC2=C1CCCC2)N=CC1=CC=C(S1)C=NC1=C(C#N)C2=C(CCCC2)S1,4.6904264399999995
7342,FAQHEK,C23 H25 N3 S2,CCN(CC)C(=S)C1(C)C2N(C=Cc3ccccc23)N(c2ccccc2)C1=S,6.03439675
7343,FAQKEQ,C8 H11 N3 S2,CC1=CC=C(S1)C(C)=NNC(N)=S,5.830855580000001
7344,FAQKIU,C7 H8 Cl1 N3 S2,CC(=NNC(N)=S)C1=CC=C(Cl)S1,5.7407859000000006
7345,FAQQIX,C21 H16 N4 O2,O=C(Nc1ccccc1)c1[n+]([O-])c2ccccc2nc1Nc1ccccc1,4.9010425600000005
7346,FAQQOD,C23 H20 N4 O4,COc1ccc(Nc2nc3ccc(OC)cc3[n+]([O-])c2C(=O)Nc2ccccc2)cc1,4.599540419999999
7347,FAQQUJ,C23 H20 N4 O4,COc1ccc(NC(=O)c2[n+]([O-])c3cc(OC)ccc3nc2Nc2ccccc2)cc1,4.77124425
7348,FAQREU,C21 H14 F2 N4 O2,Fc1ccc(cc1)N=C1N(ON=C1C(=O)Nc1ccccc1)c1ccc(F)cc1,6.145963419999999
7349,FAQRUN,C23 H19 N1 O7,COc1c2OCOc2cc2CCN(C)C(=Cc12)C1=CC(=O)Oc2cc3OCOc3cc12,5.48908059
7350,FAQVOL,C30 H13 Cl3 N2 O1,Clc1cccc(Cl)c1C1=C2N(C(=O)c3ccccc23)c2cccc3c(C#N)c4c(Cl)cccc4c1c23,4.00932547
7351,FAQZUV,C24 H21 N5 O1 S1,CC1=C(C(=O)N(N1)c1ccccc1)C(=NNC(=S)Nc1ccccc1)c1ccccc1,5.7562964
7352,FARGEN,C27 H22 N2 O3,Cc1ccc(cc1)C1N2N(CCC2=O)C(c2ccccc2)C21C(=O)c1ccccc1C2=O,6.14596343
7353,FARGIR,C21 H29 N3,CC(C)(C)NC1=C2CCCc3ccccc3C2=NC1=NC(C)(C)C,5.408262769999999
7354,FARGUD,C36 H22 N4 O2,O1c2ccccc2N(c2ccc3ccc4ccc(nc4c3n2)N2c3ccccc3Oc3ccccc23)c2ccccc12,5.36472456
7355,FARHAK,C36 H22 N4 O2,O1c2ccccc2N(c2cnc3c(ccc4cc(cnc34)N3c4ccccc4Oc4ccccc34)c2)c2ccccc12,5.12227112
7356,FARHEO,C36 H22 N4 O2,O1c2ccccc2N(c2ccccc12)c1ccnc2c1ccc1c(ccnc21)N1c2ccccc2Oc2ccccc12,5.22376959
7357,FARHIS,C15 H9 B1 F2 I2 O2,F[B-]1(F)OC(=CC(=[O+]1)c1ccc(I)cc1)c1ccc(I)cc1,5.792215430000001
7358,FARMEQ,C12 H8 N4,C1=CN2C(=NC3=C2N=C2C=CC=CN32)C=C1,5.71738412
7359,FARMIX,C52 H36 N4,N#CC(c1ccc(cc1)c1ccc(cc1)N(c1ccccc1)c1ccccc1)=C(C#N)c1ccc(cc1)c1ccc(cc1)N(c1ccccc1)c1ccccc1,4.37368592
7360,FARMOD,C46 H38 N4 O1,CN1C2=CC=C1C(=C1OC(=C(c3ccc(C)cc3)C3=CC=C(N3C)C3=NC(=C(C4=CC=C2N4)c2ccc(C)cc2)C=C3)C=C1)c1ccc(C)cc1,4.018305229999999
7362,FARPOF01,C34 H22 O4 S2,CC1=C(Sc2ccc(cc2)c2ccc(SC3=C(C)C(=O)c4ccccc4C3=O)cc2)C(=O)c2ccccc2C1=O,4.766890439999999
7363,FARQUL,C17 H15 N1 O3,CC=CC1=C(C(=O)OC1=O)C1=C(C)N(C)c2ccccc12,5.0692089199999995
7364,FARRAS,C17 H15 N1 O3,CC1C=C2C(=O)OC(=O)C2=C2c3ccccc3N(C)C12C,5.11710096
7365,FARRIA,C39 H39 N3 O6,CN1C(=O)C(=C(OC(=O)C23CCC(C)(C(=O)O2)C3(C)C)c2ccccc12)C(C1=C(CCNC(C)=O)c2ccccc2N1)c1ccccc1,5.40118782
7366,FARSAS,C20 H18 S2,C1SCc2cc(CSCc3cccc1c3)c1cccccc21,4.93614525
7367,FARSEW,C19 H17 N1 S2,C1SCc2cc(CSCc3cccc1n3)c1cccccc21,4.978050779999999
7368,FARSIA,C19 H17 N1 S2,C1SCc2cccc(CSCc3cc1cc1cccc1c3)n2,5.03084087
7369,FARZOP,C18 H19 N3 O6,COC(=O)c1ccc(NN=Nc2ccc(C(=O)OC)c(OC)c2)cc1OC,5.7402416800000005
7371,FASMES,C24 H28 O2 S1,CC(=Cc1ccc(C(O)=O)c(C)c1)c1ccc2SC(C)(C)CC(C)(C)c2c1,5.84418916
7372,FASMOD,C48 H29 N1,c1ccc(cc1)N1C2=C(C3=C1c1ccccc1C13c3ccccc3c3ccccc13)C1(c3ccccc3c3ccccc13)c1ccccc21,5.68500256
7373,FASMUJ,C42 H24 S1,S1C2=C(C3=C1c1ccccc1C13c3ccccc3c3ccccc13)C1(c3ccccc23)c2ccccc2c2ccccc12,5.81616144
7374,FASSUP,C16 H11 N1 O1 S1,O=Cc1cc2ccccc2nc1Sc1ccccc1,5.96854519
7375,FASWOO,C31 H29 N3 S1,CCCCCCN1c2ccccc2Sc2cc(ccc12)C1=Nc2ccccc2N1c1ccccc1,5.90323787
7376,FASXUU,C15 H12 Cl2 N2 O1,CC(=NO)c1ccc(cc1)N=Cc1ccc(Cl)cc1Cl,6.16392294
7377,FATBEJ,C18 H19 N1 O4,COC(=O)C1(C)CC2CCCN2C21C(=O)c1ccccc1C2=O,5.90459844
7378,FATBUZ,C17 H21 N5 O1,CCOc1cc(ccc1C=NC(C#N)=C(N)C#N)N(CC)CC,5.2692125999999995
7379,FATDAI,C24 H15 N5 O3 S2,NC1=C(C#N)C23N(NC(=O)C4=CC=CS4)C(=S)N(c4ccccc4)C2(O1)c1ccccc1C3=O,5.95439528
7380,FATFIR,C18 H16 Cl2 O4,COc1cc(cc(OC)c1OC)C(=O)C=Cc1ccc(Cl)cc1Cl,6.0289544799999994
7381,FATFUD,C16 H15 Cl1 N2 O1,CC1(C)CC(=C(C#N)C(=O)N1)C=Cc1ccccc1Cl,5.853713150000001
7382,FATMIZ,C25 H20 Br2 N2 O3,Brc1ccc(cc1)C(=O)CCN1C(=O)N(CCC(=O)c2ccc(Br)cc2)c2ccccc12,6.0099065
7383,FATNOG,C26 H10 N4,N#Cc1c2ccccc2c(C#N)c2cc3c(cc12)c(C#N)c1ccccc1c3C#N,3.5391127399999998
7384,FATREA,C23 H20 N4,CN(C)c1ccc(NC=C2C(=C(C#N)C(=C2C#N)c2ccccc2)C)cc1,5.33451993
7385,FATRIE,C25 H20 F3 N5 O2,CN(C)c1ccc(cc1)[N+]([O-])=CC1=C(C#N)C(=C(C#N)C1(C)NC(=O)C(F)(F)F)c1ccccc1,4.608792279999999
7386,FATYEG,C22 H19 N3 O1 S10,CSC1=C(SC)SC(S1)=C1SC(=C(SCCOc2nc(nc(n2)C2=CC=CS2)C2=CC=CS2)S1)SC,4.706481159999999
7387,FATZEG,C15 H15 N1 O2,Cc1cc(C)c(c(C)c1)C1=CC(=O)C=CC1=NO,5.42622229
7388,FATZUX,C28 H29 N3 O3,CCCOC(=O)C1CC2COc3ccc(cc3C2N1Cc1ccccc1)N=Nc1ccccc1,6.065417719999999
7389,FAVBOU,C24 H17 N1 O3,CC12OC(Oc3c(O1)c1ccccc1c1ccccc31)C(=N2)c1ccccc1,6.04201594
7390,FAVKOD,C19 H20 N2 O5,CCOC(=O)c1cc(cc(c1)C(=O)OCC)N=Nc1ccc(CO)cc1,6.47440484
7391,FAVLAQ,C16 H14 O4,COc1cccc2C3=C(CC(O3)C(C)=C)C(=O)C(=O)c12,5.86867941
7392,FAVPAT,C18 H16 O2,Cc1cc(C)c2c(c1)C(=O)C(=O)c1cc(C)cc(C)c21,5.93752422
7393,FAVPID,C38 H27 O4 P1 S1,COc1cc(OC)c2c3cccc4c5cccc6c7c(OC)cc(OC)cc7c7c(c56)c(c34)c(c2c1)P7(=S)c1ccccc1,4.72280799
7394,FAVQUO,C9 H11 N1 O2,CCC[n+]1cc([O-])ccc1C=O,5.54785718
7395,FAVWUX,C21 H30 O5,CCOC1CC2C(=C(O)C=CC=CC)C(=O)C1(C)C1OC(C)(C)OC21C,5.75493582
7396,FAVXIJ,C18 H22 Cl1 N3 O1,CN(C)NC1(C)C2=CCCCN2C(=O)C1=Cc1ccccc1Cl,6.2806597900000005
7397,FAVYIM,C21 H16 O2,Cc1ccc(cc1)C=C1COc2ccc3ccccc3c2C1=O,5.90731958
7398,FAWCAK,C17 H17 N1 O4,CCOC(=O)C1N2C=Cc3cccc(C=C1C(=O)OCC)c23,5.79221542
7399,FAWFER,C29 H39 N3 O3,CCCCCCCCCCCCCC1=CN(N=N1)C1C2=C(OC1(C)C)c1ccccc1C(=O)C2=O,5.834120960000001
7400,FAWFIU01,C20 H28 O3,CC(C)C1=C2C3=CC=C(CC(O)C3(C)CCC2(C)C(O)C1)C=O,5.91983682
7401,FAWFUG,C48 H34 N4,N#Cc1ccc(cc1)C=Cc1cc(N(c2ccccc2)c2ccccc2)c(C=Cc2ccc(cc2)C#N)cc1N(c1ccccc1)c1ccccc1,4.866484099999999
7402,FAWJAP,C12 H15 F1 N2 O1 Se1,CCN(CC)C(=[Se])NC(=O)c1ccccc1F,6.16800465
7403,FAWJET,C16 H23 F1 N2 O1 Se1,CC(C)CN(CC(C)C)C(=[Se])NC(=O)c1ccccc1F,5.648267189999999
7404,FAWJUL,C21 H16 F2 O4,CCOC(=O)C(F)(F)C1=C(C(=O)c2ccccc2C1=O)c1ccccc1C,5.60445687
7405,FAWKIX01,C17 H14 F6 S2,CC1=CC2=C3C(=C4C=C(C)SC4(C)C2(C)S1)C(F)(F)C(F)(F)C3(F)F,4.75600588
7406,FAWKIZ,C26 H12,c1cc2ccc3c4ccc5cccc6c7ccc8c(c1)c2c3c8c7c4c56,5.35982651
7407,FAWNAS10,C18 H20 N4,CN(C)C1=NNC(=Nc2c(C)cc(C)cc12)c1ccccc1,6.41154654
7408,FAWNOJ,C33 H31 N5 O4,CC1=NN(C(=O)C1(NC(=O)OC(C)(C)C)C1(C)C(=O)N(N=C1C#Cc1ccccc1)c1ccccc1)c1ccccc1,6.0403832600000005
7409,FAWQEC,C20 H20 N2,CN(C)c1c2cccc3ccc4cccc(c1N(C)C)c4c23,5.69371021
7410,FAWTOP,C34 H28 N2 O4 S2,CCOC(=O)C1=C(NC(=C1c1ccccc1)C1=CC=CS1)C1=C(C(=O)OCC)C(=C(N1)C1=CC=CS1)c1ccccc1,5.43683473
7411,FAWVAD,C38 H32 N2 O4,CCOC(=O)C1=C(NC(=C1c1ccccc1)c1ccccc1)C1=C(C(=O)OCC)C(=C(N1)c1ccccc1)c1ccccc1,5.64092012
7412,FAXDEP,C16 H18 O2,COc1cc2C=C3C(=CCC3(C)C)c2cc1OC,5.927456
7413,FAXDIT,C15 H14,C1CC=C(C1)C=C1C=Cc2ccccc12,5.72990135
7414,FAXGUJ,C22 H14 N2,c1ccc(C=Nc2ccc3ccc4cccc5ccc2c3c45)nc1,5.16662568
7415,FAXJAP,C19 H17 N1 O2,Cc1cc(C)c(C=C2N=C(OC2=O)c2ccccc2)c(C)c1,5.94786455
7416,FAXJIA,C20 H13 Br2 N3,Brc1ccccc1C=NC1=C2C=CC=CN2C(=N1)c1ccccc1Br,5.27628756
7417,FAXJOG,C20 H13 Br2 N3,Brc1cccc(C=NC2=C3C=CC=CN3C(=N2)c2cccc(Br)c2)c1,5.5285371
7418,FAXKEW,C36 H22 Cl2 N2 O4,Clc1ccc(cc1)C(=O)C1C(C2=Cc3ccccc3NC2=O)C2=C(C=C1C(=O)c1ccc(Cl)cc1)C(=O)Nc1ccccc21,5.58731369
7419,FAXPUP,C21 H19 N1 O3,COC(=O)CCC(c1ccccc1)=C1C=C(NC1=O)c1ccccc1,5.4501683100000005
7420,FAXRII,C16 H17 N3 O2 S1,CC(=[NH+][N-]C(=S)N1CCCC1)C1=Cc2ccccc2OC1=O,4.1208921499999995
7421,FAXRUU,C18 H17 N1 O3,OCC[NH+]=C(c1ccccc1)c1ccc(OCC#C)cc1[O-],5.88555047
7422,FAXTUW,C32 H23 N3,N#CC(=Cc1ccccn1)c1ccc(cc1)c1ccc(cc1)N(c1ccccc1)c1ccccc1,4.8790013299999995
7423,FAXVIK,C19 H21 N1,CCN(CC)Cc1c2ccccc2cc2ccccc12,5.435202049999999
7424,FAXVUW,C25 H28 N4 O4 S1,COC(=O)C(=CN(C)C)c1ccccc1OC(=CN(C)C)C1=NC(=NO1)c1ccc(SC)cc1,6.2496388000000005
7425,FAXWOR,C24 H22 Cl1 N3 O1 S1,CN(C)c1ccc(cc1)C=NC1=C(C(=O)Nc2ccccc2Cl)C2=C(CC=CC2)S1,5.30703642
7426,FAXYUZ,C7 H10 N2 O3 S1,[NH3+]c1cc(cc(N)c1C)S(=O)(=O)[O-],5.4322088
7427,FAYGES,C28 H27 Cl1 N2 O7,CCOC(=O)C1=C(COCCN2C(=O)c3ccccc3C2=O)NC(=C(C1c1ccccc1Cl)C(=O)OC)C,5.09206648
7428,FAYHOD,C20 H17 N1 O3,OC(=O)CC([NH+]=Cc1c([O-])ccc2ccccc12)c1ccccc1,5.64745085
7429,FAYTUW,C27 H21 N1 O1,O=Cc1ccc(cc1)C=Cc1ccc(cc1)N(c1ccccc1)c1ccccc1,5.11574039
7430,FAYVAE,C29 H25 N1 O2,CCOC(=O)c1ccc(C=Cc2ccc(cc2)N(c2ccccc2)c2ccccc2)cc1,5.36635725
7431,FAYVEI,C27 H21 N1 O2,OC(=O)c1ccc(C=Cc2ccc(cc2)N(c2ccccc2)c2ccccc2)cc1,5.17342853
7432,FAYVOQ,C12 H16 N4 O3,CC(C)N1CC(O)C2=CC(=NNC(N)=O)C(=O)C=C12,5.711669720000001
7434,FAYZAI,C30 H32 N4 O6 S2,CN(C)c1cccc2c1cccc2S(=O)(=O)OC1CC(OS(=O)(=O)c2cccc3c(cccc23)N(C)C)C2CC1N=N2,6.04473708
7435,FAYZEM,C24 H6 Cl4 N2 O4,Clc1cc2C(=O)NC(=O)c3cc(Cl)c4c5c(Cl)cc6C(=O)NC(=O)c7cc(Cl)c(c1c4c23)c5c67,4.30701803
7436,FAYZIO,C13 H13 N3 S1,Cc1cccc(NC(=S)Nc2ccccn2)c1,6.26242815
7437,FAZGOC,C20 H22 O6,CC(O)Cc1c(O)c(O)c2c(c1O)C(=O)C=C1C(=C(C)C(=O)CC21C)C,6.0899079700000005
7438,FAZGUI,C27 H21 Br1 O4,Cc1cc(C)c2c(ccc3C(=O)C(=C(OC(=O)c4ccc(Br)cc4)C(=O)c23)CC=C)c1C,5.088801119999999
7439,FAZJAS,C18 H13 N1 O4,COC(=O)C1=C2C=CC=C3N2C(=C1C(=O)OC)c1ccccc31,5.5908511700000005
7440,FAZJEW,C19 H12 N2,c1ccc(nc1)C1=C2C=CC=C3N2C(=C1)c1ccccc31,5.4199636799999995
7441,FAZJIA,C23 H14 N2,c1ccc2nc(ccc2c1)C1=C2C=CC=C3N2C(=C1)c1ccccc31,5.32581228
7442,FAZJIZ10,C30 H22,C1Cc2cccc3c2c(c2ccccc12)c1cccc2CCc4ccccc4c3c12,4.899137769999999
7443,FAZJOF,C21 H19 N1 O4 S1,COC(=O)C1=C[C-]([S+](C)c2ccccc2c2ccccc2N=C1)C(=O)OC,5.42649441
7444,FAZRII,C15 H17 N1 O3 S2,CCSC1=C(SCC)C(=O)N(C1=O)c1ccc(OC)cc1,5.65289313
7445,FAZROO,C11 H7 N1 S2,N#CC(=CC1=CC=CS1)C1=CC=CS1,5.33288724
7446,FAZRUU,C13 H9 N1 O2 S2,N#CC(=CC1=CC=CS1)C1=C2OCCOC2=CS1,5.44554238
7447,FAZSAB,C13 H9 N1 O2 S2,N#CC(=CC1=C2OCCOC2=CS1)C1=CC=CS1,5.52091791
7448,FAZSEF,C15 H12 N2 O4 S1,N#CC(=CC1=C2OCCOC2=CN1)C1=C2OCCOC2=CS1,5.30295472
7449,FAZTAC,C19 H17 N5 O1 S1,CC1=NN(C(=O)C1=C1CSC(=NN1)Nc1ccccc1)c1ccccc1,5.72092159
7450,FAZVOS,C11 H7 Cl1 N2 O1 S1,CSC1=C(Cl)C(=O)N2c3ccccc3N=C12,5.53914954
7451,FAZVUY,C24 H18 N2 O1 S2,O=C1N2c3ccccc3N=C2C(=C1SCc1ccccc1)SCc1ccccc1,5.09995779
7452,FAZWAF,C10 H6 Cl2 N2 O2,Nc1ccccc1N1C(=O)C(=C(Cl)C1=O)Cl,5.3298939899999995
7453,FAZWAH,C19 H18 N2 O2 S1,Cc1ccc(cc1)S(=O)(=O)C1=Cc2ccccc2N2CCCN=C12,6.027593899999999
7454,FAZXOU,C18 H18 O5,CCOC(=O)C1=Cc2cc(C=CC)c3OC(C)Cc3c2OC1=O,5.897251369999999
7455,FBPIPA,C24 H29 F1 N2 O2,CCC(=O)N(C1CCN(CCCC(=O)c2ccc(F)cc2)CC1)c1ccccc1,6.817268299999999
7456,FBPYTS,C14 H14 N4 S1,NC(=S)NN=Cc1ccc(Cc2ccccc2)cn1,5.76255501
7457,FEBDOI,C37 H27 N1 O2,CC1=NC(=Cc2ccc(cc2)c2ccc(cc2)C(c2ccccc2)=C(c2ccccc2)c2ccccc2)C(=O)O1,4.98675842
7458,FEBDUO,C29 H22 N2 O2,CC1=NC(=Cc2ccc(cc2)c2ccc(cc2)N(c2ccccc2)c2ccccc2)C(=O)O1,4.73940694
7460,FEBFUO,C26 H19 N1 O4,COC(=O)c1c(O)ccc2N(Cc3ccccc3)C3=C(C(=C)c4ccccc4C3=O)c12,5.47710758
7461,FEBGAW,C21 H20 N2 O2,Cc1c(O)ccc2c1OC(=CC(C)(C)C)c1nc3ccccc3nc21,5.36526879
7462,FEBGEY,C28 H28 N2,N#CC1=C(C#N)C2C3=C4CCCc5cc6CCCC(=C2CCCc6cc5CCC3)C14,5.70568321
7463,FEBROW,C17 H13 N1 O2,CC1=NC(=Cc2ccc(cc2)c2ccccc2)C(=O)O1,5.5560206
7464,FEBRUC,C18 H13 N1 O2,CC1=NC(=Cc2ccc3c(Cc4ccccc34)c2)C(=O)O1,5.46649515
7465,FEBSAJ,C18 H15 N1 O3,COc1ccc(cc1)c1ccc(cc1)C=C1N=C(C)OC1=O,5.34703717
7466,FEBSEM,C39 H32 O3,CC(C)(O)C#Cc1ccc(cc1)C1=C(c2ccccc2)C(=O)C(=C1c1ccc(cc1)C#CC(C)(C)O)c1ccccc1,5.16336031
7467,FEBWIV,C18 H18 N4,CCN(CC)c1nc(c(C)c(C#N)c1C#N)c1ccccc1,5.89262544
7468,FEBWOB,C19 H20 N4 O2,CCN(CC)c1nc(cc(C#N)c1C#N)c1ccc(OC)c(OC)c1,5.6384711
7469,FEBWUH,C17 H16 N4,CCN(CC)c1nc(cc(C#N)c1C#N)c1ccccc1,5.83548152
7470,FEBYAO,C11 H7 Br1 N4 S1,BrC1=CC=C(Nc2ccccn2)C2=NSN=C12,5.26186553
7471,FEBYES,C11 H8 N4 S1,N(c1ccccn1)C1=CC=CC2=NSN=C12,5.59248386
7472,FEBZAQ,C18 H12 N2 O2,CC1=NC(=Cc2ccc(cc2)c2ccc(cc2)C#N)C(=O)O1,5.58758581
7473,FECGOL,C20 H15 N1 O2,CC(=O)c1ccc(cc1)N1c2ccccc2Oc2ccccc12,5.2180552
7474,FECGUR,C20 H15 N1 O1 S1,CC(=O)c1ccc(cc1)N1c2ccccc2Sc2ccccc12,5.25751171
7475,FECHAY01,C25 H17 N1 O2,O=C(c1ccccc1)c1ccc(cc1)N1c2ccccc2Oc2ccccc12,5.332887240000001
7476,FECHOM,C24 H32 S3,CCCCCCC1=CC=C(S1)C1=CC=C(S1)C1=CC=C(CCCCCC)S1,5.44771929
7477,FECMIK,C36 H31 N1 O4 S1,Cc1ccc(cc1)S(=O)(=O)N1C(=O)C2(C(=CC3=C(OCC3C2(C)C)c2ccccc2)c2ccccc2)c2ccccc12,5.82704599
7478,FECMOQ,C26 H20 O3 S1,CC1C2COC(=C2C=C(c2ccccc2)C21C(=O)Oc1ccccc21)C1=CC=CS1,5.55792539
7479,FECPAH,C17 H9 N1 O3,O=C1c2cc3OCOc3cc2c2cnc3ccccc3c12,5.132339330000001
7480,FECPEL,C31 H30 N3 O6 P1,CCOP(=O)(CC(C(N1C(=O)c2ccccc2C1=O)C(=O)Nc1cccc2cccnc12)c1ccccc1)OCC,5.9192925899999995
7481,FECPUB,C14 H10 N2 O3 S1,CC1=CN=C(NC(=O)C2=COc3ccccc3C2=O)S1,5.94595975
7482,FECQOU,C32 H34 N2 O2,CC1C2C3C(C)N(C=C4CCCC(=O)C34C(N1c1ccccc1)C1=C2C(=O)CCC1)c1ccccc1,5.95466739
7483,FECXEQ,C9 H12 N2 O1,CN1C=CC(=C(C)C)C(=O)C=N1,6.163106600000001
7484,FECXIU,C24 H34 N2,CC(C)c1cccc(C(C)C)c1N=Nc1c(cccc1C(C)C)C(C)C,6.38487939