,ID,formula,smiles,HOMO_LUMO_gap
11416,HUSBON,C32 H23 N7,CC1=NN2C(=C(N=C2C2=C(N(N=C12)c1ccccc1)c1ccccc1)c1ccccc1)N=Nc1ccccc1,5.42812709
11417,HUSBOO,C22 H21 N5,CC1=NC2=NN3C(CC(N=C3N2C(=C1)C)c1ccccc1)c1ccccc1,5.5905790600000005
11419,HUSDIL,C34 H18 N4,c1cncc(c1)C#Cc1cc(C#Cc2cccnc2)c(cc1C#Cc1cccnc1)C#Cc1cccnc1,5.583504100000001
11420,HUSQAP,C18 H18 N8,CN(N=Cc1cnc(C=NN(C)c2ccccn2)cn1)c1ccccn1,5.3503025300000004
11421,HUSSOF,C25 H18 N1 P1,c1ccc(cc1)P(c1ccccc1)c1cccc2c3ccccc3cnc12,6.0088180499999995
11422,HUSVID,C35 H25 N1,Cc1cccc2c(cc3nc4cc(c5ccccc5)c5cccc(C)c5c4cc3c12)c1ccccc1,5.71820045
11423,HUSVOJ,C35 H25 N1,Cc1ccc2c3cc4c(cc(c5ccccc5)c5cc(C)ccc45)nc3cc(c3ccccc3)c2c1,5.7073159
11424,HUSYIF,C32 H24 Cl2 N2 O2,CCOC(=O)C1=C(c2ccc(Cl)cc2N1)C1=C(c2ccccc2)c2ccccc2N1Cc1ccc(Cl)cc1,5.91276185
11425,HUSYOL,C31 H22 Cl1 F1 N2 O2,CCOC(=O)C1=C(c2ccc(Cl)cc2N1)C1=C(c2ccc(F)cc2)c2ccccc2N1c1ccccc1,5.76962997
11426,HUSZAY,C20 H19 N1 O2,CN(C)c1ccc(cc1)C=C1OC(=O)C(=C1)Cc1ccccc1,5.08553575
11427,HUSZIG,C18 H13 Br1 O2,Brc1ccc(cc1)C=C1OC(=O)C(=C1)Cc1ccccc1,5.72146582
11428,HUSZOM,C18 H14 O3,Oc1ccc(cc1)C=C1OC(=O)C(=C1)Cc1ccccc1,5.68445834
11429,HUSZUS,C24 H18 O2,O=C1OC(C=C1Cc1ccccc1)=Cc1ccc(cc1)c1ccccc1,5.5500340999999995
11430,HUTBED04,C19 H20 Cl1 N1 O3,COc1ccc(CCNC(=O)C=Cc2ccc(Cl)cc2)cc1OC,6.20446791
11431,HUTDUX,C16 H14 N4 O4 S1,COC(=O)C1=CC(=O)N2N=C(C)C(=C2S1)N=Nc1ccc(OC)cc1,5.47874027
11432,HUTJIR,C19 H18 O6,COc1cc(C)c2c3OC(C)C(C)(C)c3c(O)c3C(=O)C(=O)Oc1c23,5.32744496
11433,HUTLAK,C32 H23 F3 O4,COc1ccc(cc1OC)c1cc(C(=O)Oc2ccccc2)c(c2ccc(cc2)C(F)(F)F)c2ccccc12,5.87874763
11434,HUTLEO,C40 H38 N4 O4,O=C1N(Cc2ccccc2)C(=C2C(=O)N(Cc3ccccc3)C(=C12)c1ccc(cc1)N1CCOCC1)c1ccc(cc1)N1CCOCC1,4.358991769999999
11435,HUTLEP,C28 H20 N2 O3,CCOC(=O)c1c2Nc3ccccc3c2c(C(=O)c2ccccc2)c2c1Nc1ccccc21,5.6787439399999995
11436,HUTLIR,C26 H8 Cl8,Clc1cc(Cl)c2c(c1)c1cc(Cl)cc(Cl)c1C2=C1c2c(Cl)cc(Cl)cc2c2cc(Cl)cc(Cl)c12,4.064292469999998
11437,HUTLUF,C22 H19 N1 O2,CC(C)(C)N1C(O)c2cc3ccc4cccc5ccc(c2C1=O)c3c45,5.48418255
11438,HUTMAM,C25 H23 N1 O4,CCOC(=O)C1(O)N(C(=O)c2c3ccc4cccc5ccc(cc12)c3c45)C(C)(C)C,5.43629051
11439,HUTNAN,C10 H13 N1 O3,CC([NH2+]Cc1cccc(O)c1)C(=O)[O-],6.57100526
11440,HUTPOC,C12 H11 N3 O4,CC1=NN=C(C)N1c1cc(cc(c1)C(O)=O)C(O)=O,6.49780664
11441,HUTROG,C17 H16 O2,COc1cc(OC)c2c(C)c3ccccc3cc2c1,5.41071181
11442,HUTVIB,C14 H6 I2 S2,IC1=Cc2ccc3SC(=Cc4ccc(S1)c2c34)I,4.38674739
11443,HUVBOQ,C25 H26 N4 O1,CN(C)C=Nc1cc2OC3(C=Nc2c2ccccc12)N(C)c1ccccc1C3(C)C,5.543231250000001
11444,HUVBUV,C21 H20 O7,COCOc1cc(C2OCCCO2)c2C(=O)c3c(OC)cccc3C(=O)c2c1,6.110588620000001
11445,HUVDUY,C19 H14 N4,N1C(Nc2cccc3cccc1c23)c1cnc2ccccc2n1,4.61858839
11446,HUVNOD,C27 H33 N1 O5 S1,COc1cc2c(C=CC(=C3C=C(C=CC(=C23)C)C(C)C)C)c(CO)c1S(=O)(=O)N1CCOCC1,6.01344398
11447,HUVNUJ,C26 H22 O3 S1,CC1=CC(=C2c3cc4c5ccccc5S(=O)(=O)c4c(O)c3C=CC(=C2C(=C1)C)C)C,5.62105581
11448,HUVQEX,C34 H29 N3 O4,CCC(CC)N1C(=O)c2ccc3c4ccc5C(=O)N(C(CC)CC)C(=O)c6cc7Nc8cc(C1=O)c2c3c8c7c4c56,4.40742804
11449,HUVXUU,C22 H16 Cl1 N3,CC(C)(C)c1ccc(cc1)C1=C(Cl)C2=CC=CC3=C(C#N)C(=C1N23)C#N,5.31955366
11450,HUWCUZ,C12 H9 I1 O2,CC1(C(=O)C=CC1=O)c1ccccc1I,6.262428160000001
11451,HUWKOA,C22 H22 N3 P1 S1,CCNC(=S)NN=Cc1ccccc1P(c1ccccc1)c1ccccc1,5.651804680000001
11452,HUWKUG,C22 H22 N3 P1 S2,CCNC(=S)NN=Cc1ccccc1P(=S)(c1ccccc1)c1ccccc1,5.62051158
11453,HUWNOD,C16 H24 N2 O2,CC(C)(C)CC(C)(C)[NH+]=CNc1ccccc1C(=O)[O-],5.573708
11454,HUWRUN,C15 H14 Br1 N5 O2,CN1C(=O)N(C)C2=C(N(C)C(=N2)N=Cc2cccc(Br)c2)C1=O,5.5658167
11455,HUWTUR,C21 H12 O3 S1,COC(=O)C1=Cc2ccc3ccc4C(=O)c5ccccc5c4c3c2S1,5.365540899999999
11456,HUWXUU,C12 H12 N2 O2 S2,O=C1C=CSC1=CNCCNC=C1SC=CC1=O,5.881740880000001
11457,HUWYEG,C34 H25 N1 O4,COC(=O)C1=C(c2ccc(C)cc2)C2=C(Oc3ccccc3C2=O)c2ccccc2N2C1Cc1ccccc21,5.564184020000001
11458,HUWYIK,C34 H24 Br1 N1 O4,COC(=O)C1=C(O)c2ccccc2N2c3ccccc3C(=C12)C(=CC(=O)c1ccccc1Br)c1ccc(C)cc1,5.257239589999999
11459,HUXFIQ,C17 H20 N2 O3 S1,CCOC(=O)C(C#N)=C(CC(=O)C1=CC=CS1)N1CCCCC1,6.182154570000001
11460,HUXFUB,C29 H27 N3 S16,CSC1=C(SC)SC(S1)=C1SC(=C(SCc2cccc(CSC3=C(SCCC#N)SC(S3)=C3SC(=C(SC)S3)SC)n2)S1)SCCC#N,5.06594355
11461,HUXGIT,C28 H16 I2,Ic1cc2cc3ccccc3c(c2cc1I)c1c2ccccc2cc2ccccc12,5.31002968
11462,HUXGOZ,C20 H10 I2,Ic1cc2cc3ccc4cccc5ccc(c2cc1I)c3c45,5.147849819999999
11463,HUXHAM,C16 H8 I2,Ic1cc2c3cccc4cccc(c2cc1I)c34,5.84636608
11464,HUXHIU,C32 H18,c1ccc(cc1)C#Cc1cc2c3cccc4cccc(c2cc1C#Cc1ccccc1)c34,5.22649072
11467,HUXKOC,C27 H40 N2 Se1,CC(C)c1cccc(C(C)C)c1N(C)C(=[Se])N(C)c1c(cccc1C(C)C)C(C)C,6.14052115
11468,HUXLES,C38 H38 N2 S5,CCCCCCC1=C(SC(=C1CCCCCC)C1=CC(=CS1)C(=CC1=CSC=C1)C#N)C1=CC(=CS1)C(=CC1=CSC=C1)C#N,5.54132645
11469,HUXLET,C19 H24 N2 Se1,CC(C)N(C(C)C)C(=[Se])N(c1ccccc1)c1ccccc1,6.13589522
11470,HUXLIX,C16 H26 N2 Se1,CC(C)N(C(C)C)C(=[Se])N(C(C)C)c1ccccc1,6.21127075
11471,HUXLOD,C16 H32 N2 Se1,CC(C)N(C(C)C)C(=[Se])N1C(C)(C)CCCC1(C)C,6.1492287900000004
11472,HUXLUJ,C25 H10 F10 N2 Se1,Fc1c(F)c(F)c(N(C(=[Se])N(c2ccccc2)c2ccccc2)c2c(F)c(F)c(F)c(F)c2F)c(F)c1F,5.97779707
11474,HUXSOL,C17 H8 Br1 Cl1 O2,Clc1ccccc1C#CC1=CC(=O)Oc2ccc(Br)cc12,5.97072211
11475,HUXTIG,C37 H36 O1,CC(C)(C)c1ccc(cc1)C1=C(C(=O)C(=C1c1ccc(cc1)C(C)(C)C)c1ccccc1)c1ccccc1,4.8504293899999995
11476,HUXWEE,C28 H22 Cl1 N3 O2,Cc1cc2NC3=C(C(=O)C=C3)C3(Nc2cc1C)C(=O)N(Cc1cccc(Cl)c1)c1ccccc31,4.9404990699999995
11477,HUXXAB,C30 H33 B1 N2,Cc1cc(C)c(N2C=C[N+]3=C2[B-](=Cc2cc(C)cc(C)c32)c2c(C)cc(C)cc2C)c(C)c1,5.6975198
11478,HUXYAB,C22 H12 Cl1 N1 O1 S1,Clc1ccccc1c1cc(nc2c3ccccc3C(=O)c12)C1=CC=CS1,5.52255059
11479,HUXYAD,C30 H24 N2 O4,CCOC(=O)C1=C(C(=C2C=C(C=CN12)C#N)C(O)c1ccccc1)c1c(OC)ccc2ccccc12,5.77561647
11480,HUXZUX,C20 H19 N1 O3,CCOC(=O)C(=CNc1ccccc1)C=CC(=O)c1ccccc1,5.946776079999999
11481,HUYFAK,C14 H9 N1,c1ccc2C3=CC=C4C=CC=C(N34)c2c1,5.63166825
11482,HUYGEP,C18 H15 N1 O1,COc1ccc(cc1)C(=CC=Cc1ccccc1)C#N,5.396833989999999
11483,HUYGOZ,C18 H15 N1 O1,COc1ccc(C=CC=C(C#N)c2ccccc2)cc1,5.50704011
11484,HUYJIW,C36 H24 N2,c1ccc2nc(ccc2c1)C=Cc1c2ccccc2c(C=Cc2ccc3ccccc3n2)c2ccccc12,5.08118193
11485,HUYKIX,C19 H13 F1 O2,Oc1ccc2ccccc2c1C(C=O)=Cc1ccc(F)cc1,5.87330535
11486,HUYLOE,C23 H26 N2,Cc1cc(C)c(N2C(=C(C)N3C2=Cc2cc(C)cc(C)c32)C)c(C)c1,6.02541699
11488,HUYMUL,C14 H7 N3 S1,S1N=C2C=C3C4=CC=CC5=CC=C(N45)C3=CC2=N1,4.6365479
11489,HUYTAY,C12 H14 B1 N1,Cc1cccc(C)[n+]1[b-]1ccccc1,4.570696350000001
11490,HUYTIG,C22 H18 Cl1 N3 O1,Clc1ccc(cc1)C=NNC(=O)CCN1c2ccccc2c2ccccc12,5.75928965
11491,HUYXOO,C14 H12 Br1 N1 O1,Brc1ccc(NCC(=O)c2ccccc2)cc1,5.66105655
11492,HUYZIK,C25 H16 O1 S2,O=C1C(=C(C2=CSC=C2)C(=C1c1ccccc1)C1=CSC=C1)c1ccccc1,4.9802277
11493,HUYZUW,C30 H32 N2 O6,Cc1ccccc1C1=C2C(=O)N(C(=O)OC(C)(C)C)C(=C2C(=O)N1C(=O)OC(C)(C)C)c1ccccc1C,5.49180173
11494,HUZBAF,C30 H28 N2 O6,CC(C)(C)OC(=O)N1c2ccccc2C(=O)c2cc3N(C(=O)OC(C)(C)C)c4ccccc4C(=O)c3cc12,5.28309041
11495,HUZCEN,C12 H10 Cl1 N1 O3,CCOC(=O)C=C1C(=O)Nc2ccc(Cl)cc12,5.65942386
11496,HUZDUE,C33 H29 N1 O4,CCOC(=O)C1C(C(C2N1C=Cc1ccccc21)C(=O)c1ccccc1)c1c(OC)ccc2ccccc12,5.521734250000001
11497,HUZFAJ,C13 H9 N3 O2,O=C1NC(=O)C(=C2C=CC=CN12)c1ccccn1,5.73724843
11498,HUZFEQ,C48 H30 N2 O2 S1,O=S1(=O)c2cc(ccc2c2ccc(cc12)c1ccc(cc1)N1c2ccccc2c2ccccc12)c1ccc(cc1)N1c2ccccc2c2ccccc12,5.1998235600000005
11499,HUZFIR,C24 H24 N6,CN(C)c1ccc(cc1)C1CC(=NN1CN1N=Nc2ccccc12)c1ccccc1,6.09943196
11500,HUZGAK,C19 H15 N1 O2,OC(C=CC1=CNc2ccccc12)=CC(=O)c1ccccc1,5.32962187
11501,HUZGAM,C16 H12 N4,CC1(C)C2=CC(=C(C#N)C(=N)N2c2ccccc12)C#N,5.36145919
11502,HUZGIU,C30 H20 F2,Fc1ccc(cc1)C=Cc1c2ccccc2c(C=Cc2ccc(F)cc2)c2ccccc12,5.19383707
11503,HUZGOA,C30 H20 Cl2,Clc1ccc(cc1)C=Cc1c2ccccc2c(C=Cc2ccc(Cl)cc2)c2ccccc12,5.14866616
11504,HUZGUG,C30 H20 Br2,Brc1ccc(cc1)C=Cc1c2ccccc2c(C=Cc2ccc(Br)cc2)c2ccccc12,5.79629713
11505,HUZHAN,C30 H20 I2,Ic1ccc(cc1)C=Cc1c2ccccc2c(C=Cc2ccc(I)cc2)c2ccccc12,4.81668727
11506,HUZHES,C12 H8 F3 N1 O3,COC(=O)C(=C1C(=O)Nc2ccccc12)C(F)(F)F,6.02242374
11507,HUZJOB,C15 H14 O4,CC1COC2=C(C)C(=O)C(=O)c3c(C)cc(O)c1c23,5.5225506
11508,HUZKIW,C20 H22 N2 O1,CCCCCCc1ccc(cc1)N=C1C(=O)Nc2ccccc12,6.11276554
11509,HUZLIX,C9 H7 N3 O1 S2,Oc1ccccc1C=NC1=NNC(=S)S1,5.36581302
11510,HUZQIF,C30 H24 S2,S=C(C1C(SC(=CC1c1ccccc1)c1ccccc1)c1ccccc1)c1ccccc1,5.39003115
11511,HUZTAX,C36 H28 Cl1 N3 O1,Cc1ccc(cc1)N(c1ccc(C)cc1)c1ccc(C=Cc2cccc(c2)C2=NN=C(O2)c2ccc(Cl)cc2)cc1,5.2297560899999995
11512,HUZTEB,C36 H28 Cl1 N3 O1,Cc1ccc(cc1)N(c1ccc(C)cc1)c1ccc(C=Cc2ccc(cc2)C2=NN=C(O2)c2ccc(Cl)cc2)cc1,5.02594281
11513,HUZXIJ,C36 H33 F1 O2,CC(=O)OC(c1c2ccccc2cc2ccc(F)cc12)=C(c1c(C)cc(C)cc1C)c1c(C)cc(C)cc1C,5.31601618
11514,HUZZOU,C40 H36 N2 O4,COc1ccc(cc1)N(c1ccc(OC)cc1)c1ccc(cc1)c1ccc(cc1)N(c1ccc(OC)cc1)c1ccc(OC)cc1,5.90623113
11515,HXMAZB01,C18 H22 N2,Cc1cc(C)c(N=Nc2c(C)cc(C)cc2C)c(C)c1,6.0452813
11516,HXNIPA10,C6 H11 N1 O3,OC1CC[NH2+]CC1C(=O)[O-],6.19004587
11517,HXPHOL11,C13 H8 O2,Oc1ccc2cccc3C=CC(=O)c1c23,5.43248091
11518,HYBZRN,C16 H12 O5,COc1cccc(O)c1C1=C2C(=O)C=C(C)C(=O)C2=CO1,5.66513825
11519,IADRCH,C9 H8 I1 N1 O3,C[N+]1=C2C(=C([O-])C(=O)C=C2C(O)C1)I,4.972336390000001
11520,IBACEV,C21 H28 Br1 N1 O4 S1,COc1ccc(CCC2(C=CC(=O)C=C2Br)N(C)S(=O)C(C)(C)C)cc1OC,5.73371094
11521,IBACUM,C49 H36 N2 O2 S1,COc1c(C)c(OC)c2cc1C(=C1C=CC(=N1)C(=C1SC(=C(c3ccccc3)C3=NC(=C2c2ccccc2)C=C3)C=C1)c1ccccc1)c1ccccc1,3.5910864800000004
11522,IBAFAU,C36 H33 N5,Cc1cc(C)cc(c1)c1ccc(nc1)N=C1NC(=Nc2ccc(cn2)c2cc(C)cc(C)c2)c2cc(C)c(C)cc12,5.2025447
11523,IBALED,C23 H22 O4,COC(=O)C1(CC(=Cc2ccccc2)C(C1)=Cc1ccccc1)C(=O)OC,5.72010525
11524,IBAWIU,C10 H12 Cl1 N3 O1 S1,CN(C)C(=S)NN=Cc1cc(Cl)ccc1O,5.79085485
11525,IBCAPT10,C20 H23 I1 N2 O4,CCCCCCCC(=O)NC1=CC(=O)C(=O)N(Cc2ccc(I)cc2)C1=O,5.082542500000001
11526,IBEBAV,C42 H48 N2 O2 S2,CCCCC(CC)CN1C(=O)C2=C(N(CC(CC)CCCC)C(=O)C2=C1C1=CC=C(S1)c1ccccc1)C1=CC=C(S1)c1ccccc1,3.7753075600000003
11527,IBEDOL,C10 H13 N3 O1 S1,CNC(=S)NN=Cc1cc(C)ccc1O,5.91439454
11528,IBEDUR,C30 H29 N3,Cc1ccc(cc1)C1=CC(=C2C=Cc3ccccc3N12)N1CCN(CC1)c1ccccc1C,5.53343515
11529,IBEGON,C20 H8 F6 O2 S2,FC(F)(F)c1ccc(cc1)C1=C2SC(=O)C(=C2SC1=O)c1ccc(cc1)C(F)(F)F,5.37016684
11530,IBEMOU01,C27 H20 O3,COc1ccc(cc1)c1ccc2c3ccc(cc3C(=O)c2c1)c1ccc(OC)cc1,5.44826351
11531,IBENAH,C27 H20 O3,COc1cccc(c1)c1ccc2c(c1)C(=O)c1cc(ccc21)c1cccc(OC)c1,5.58622523
11532,IBENEL,C27 H20 O3,COc1ccccc1c1ccc2c(c1)C(=O)c1cc(ccc21)c1ccccc1OC,5.78214721
11533,IBENOV01,C29 H24 O1,CCc1ccc(cc1)c1ccc2c3ccc(cc3C(=O)c2c1)c1ccc(CC)cc1,5.3064922
11534,IBEVOC,C14 H9 N5 S2,N1C(=NC2=NC=CS2)c2ccccc2C1=NC1=NC=CS1,5.251797310000001
11535,IBEVUJ,C22 H14 N2,N#CC(C#N)=C(C=C1C=Cc2ccccc2C=C1)c1ccccc1,4.70484847
11536,IBEZUN,C22 H12 F4 S2,Fc1c(F)c(ccc1C=Cc1ccc(c(F)c1F)C1=CC=CS1)C1=CC=CS1,5.290437479999999
11537,IBIBAZ,C22 H12 F4 S2,Fc1cc(c(F)cc1C=Cc1cc(F)c(cc1F)C1=CC=CS1)C1=CC=CS1,5.197918769999999
11538,IBIBUR01,C14 H6 N10,CN1c2nc(C#N)c(nc2N(C)c2nc(C#N)c(nc12)C#N)C#N,5.327172859999999
11539,IBICAY,C36 H50 N10,CCCCCCCCCCCCN1c2nc(C#N)c(nc2N(CCCCCCCCCCCC)c2nc(C#N)c(nc12)C#N)C#N,5.525271739999999
11540,IBIDOP,C24 H30 N4,CCNC(=NCC)c1cccc2cc3cccc(C(NCC)=NCC)c3cc12,5.5116660500000005
11541,IBIFIL,C34 H46 N4 O4,CCN=C(N(CC)C(=O)OC(C)(C)C)c1cccc2cc3cccc(c3cc12)C(=NCC)N(CC)C(=O)OC(C)(C)C,5.412344490000001
11542,IBIMIS,C24 H20 N2,Cc1cc(C)c(N=C2C3=Cc4ccccc4N3c3ccccc23)c(C)c1,5.63194036
11543,IBISAO,C22 H16 N2,Cc1nc(C#Cc2ccccc2)c(C)nc1C#Cc1ccccc1,5.76799729
11545,IBIZIF,C10 H12 N2 O1,CC1C[NH+]=C(N1)c1ccccc1[O-],5.8199710300000005
11546,IBIZUR,C27 H22 O3,COc1ccc(cc1)C#CC=C(C#Cc1ccc(OC)cc1)c1ccc(OC)cc1,5.30622008
11548,IBOFAH,C26 H34 N4 O2 S3,CN(C)c1cccc2c1cccc2S(=O)(=O)NCCCN1CCSCc2cccc(CSCC1)n2,6.24120327
11549,IBOJER,C35 H22 F1 N1 O1,Fc1cccc2c1C(=O)N1C(=C(c3ccccc3)c3ccccc3C1=C2c1ccccc1)c1ccccc1,5.65806329
11550,IBOJIV,C33 H21 N1 O1 S1,O=C1N2C(=C(c3ccccc3)c3ccccc3C2=C(c2ccccc2)C2=C1SC=C2)c1ccccc1,5.702145740000001
11551,IBONOF,C21 H19 N5 O1,CCCNC=C1C=CC(=N1)c1nc2ccccc2nc1C1=CC=C(N1)C=O,5.36526879
11552,IBOSIC,C22 H26 N2 O2,CCC1=C(C)NC(=C1C)C1=CC(=O)C(=CC1=O)C1=C(C)C(=C(C)N1)CC,4.1404843499999995
11553,IBOVAZ,C6 H8 N4 O2,NC1=C(N)C(=O)C(=C(N)C1=O)N,4.23109826
11554,IBOZOO,C37 H35 N1 O3,O=C(C1N(C2CCCCC2)C(C(c2ccccc2)C21COc1ccccc1C2=O)c1ccccc1)c1ccccc1,6.22324376
11555,IBUDUH,C21 H20 N2 O5,COc1cccc(C=C2C(=O)N(C)C(=O)N(C)C2=O)c1OCc1ccccc1,6.04555342
11556,IBUJUM,C30 H24 N4,Cc1ccc(NC2=C(Nc3ccccc23)C2=Nc3ccccc3C2=Nc2ccc(C)cc2)cc1,3.93068457
11557,IBUKAT,C34 H32 N4,Cc1cc(C)c(N=C2C(Nc3ccccc23)=C2Nc3ccccc3C2=Nc2c(C)cc(C)cc2C)c(C)c1,4.1701447599999995
11558,IBUKEX,C24 H28 N4,CC(C)(C)N=C1C(Nc2ccccc12)=C1Nc2ccccc2C1=NC(C)(C)C,4.00524377
11559,IBUKIB,C28 H18 N4,c1ccc(cc1)N=C1c2ccccc2N=C1C1=Nc2ccccc2C1=Nc1ccccc1,5.84718242
11560,IBULAT,C21 H22 O5,CC(C)c1cc2C(=O)C(=C3C4=C(CCC3(C)C)Oc(c1OC(C)=O)c24)O,5.78922217
11561,IBULEZ,C32 H24 N2,CN1c2ccccc2C2=C1C=C(c1ccccc1)C1=C(C2c2ccccc2)c2ccccc2N1,5.43792319
11562,IBUNAU,C18 H18 Cl1 N5 O1,OCCCNc1cc(ccn1)c1ccnc(Nc2cccc(Cl)c2)n1,6.07113212
11563,IBURIJ,C18 H19 Br1 N4,Brc1ccc(nc1)C1=C(NC2CCCCC2)N2C=CC=CC2=N1,6.04745821
11567,IBUXOV,C46 H28 N4 O4,O=C(Oc1ccc(cc1)C#N)c1ccc(cc1)N1C(=CC2=C1C=C(N2c1ccc(cc1)C(=O)Oc1ccc(cc1)C#N)c1ccccc1)c1ccccc1,5.4558827
11568,IBUYOU,C46 H44 N2,CCN(CC)c1ccc(cc1)C=Cc1cc(C#Cc2ccccc2)c(cc1C=Cc1ccc(cc1)N(CC)CC)C#Cc1ccccc1,5.16798625
11569,IBUYUA,C48 H42 F6 N2,CCN(CC)c1ccc(cc1)C=Cc1cc(C#Cc2ccc(cc2)C(F)(F)F)c(cc1C=Cc1ccc(cc1)N(CC)CC)C#Cc1ccc(cc1)C(F)(F)F,4.647432449999999
11570,IBUZIP,C12 H6 Cl2 N2,Clc1ccc2nc3c(Cl)cccc3nc2c1,5.5503062100000005
11571,IBUZIQ,C17 H14 N2 O2,COC(=O)c1ccc(cc1)C(C1=CC=CN1)=C1C=CC=N1,5.105672180000001
11572,IBZFRO02,C6 H3 I1 N2 O2,IC1=CC2=NO[N+](=C2C=C1)[O-],5.63194037
11573,ICAHEA,C9 H9 F6 N2 P1 S2,FC(F)(F)CN(CC(F)(F)F)P(=S)([S-])[n+]1ccccc1,5.161999740000001
11574,ICAHIE,C8 H20 N2 P2 S4,CCN(CC)P1(=S)SP(=S)(S1)N(CC)CC,6.45426842
11575,ICAHUQ,C9 H15 N2 P1 S2,CCN(CC)P(=S)([S-])[n+]1ccccc1,4.75546166
11576,ICANOP,C13 H17 N5 O1 S1,CN(CCO)c1ccc(cc1)C=NN1C(=NNC1=S)C,6.130725050000001
11577,ICAPOR06,C19 H18 N2 O1,CC1(C)CC(=CC(C1)=C(C#N)C#N)C=Cc1ccc(O)cc1,4.95437688
11578,ICAVAJ,C38 H30 N2,c1ccc(cc1)N(c1ccccc1)c1ccc(C=Cc2ccc(cc2)N(c2ccccc2)c2ccccc2)cc1,5.542414910000001
11579,ICAWAL,C23 H23 N1 O2,CC(C)(C)c1ccc(O)c(NC=C2C=C(C=CC2=O)c2ccccc2)c1,4.99056802
11580,ICAYAN,C48 H28 O2,O1c2ccccc2C2(c3ccccc13)c1cccc3c4cc5ccccc5cc4c4cccc(c4c13)C12c2ccccc2Oc2ccccc12,5.8490872099999995
11581,ICAYER,C54 H32 O2,O1c2ccccc2C2(c3ccccc13)c1cccc3c4cc5ccccc5c(c5ccccc5)c4c4cccc(c4c13)C12c2ccccc2Oc2ccccc12,5.71847256
11582,ICECAU,C18 H20 O4,CC12CCC3C(CCC4=C3C(=O)C3OC3C4=O)C1CCC2=O,6.56610721
11583,ICECOK,C20 H14 N2 S2,S1C=CC=C1c1ccc(C2=CC=CS2)c(c1)N=Cc1ccccn1,5.2947913
11584,ICEDUQ,C12 H14 N8,CC1=NN(C(=C1)C)c1nnc(nn1)N1N=C(C)C=C1C,5.815889330000001
11585,ICEKOT,C22 H22 N2 O5 S1,COC(=O)CCN1C(=S)N(CCC(=O)OC)c2cc(ccc12)C(=O)c1ccccc1,5.991402760000001
11587,ICESIU,C26 H28 N4 O4,CC(C)(C)C1=C(C=C2NC(=O)C(=Cc3ccccc3)N=C2OCOC(=O)CCCC#C)N=CN1,5.17723812
11588,ICESOA,C24 H31 N4 O6 P1,CCOP(=O)(OCC)OCOC1=NC(=Cc2ccccc2)C(=O)NC1=CC1=C(NC=N1)C(C)(C)C,5.22322536
11589,ICETEX10,C20 H22 O5,CC(C)C1=C(O)C(=O)C2=C(C=CC3C4(C)CCCC3(C2)OC4=O)C1=O,5.863237139999999
11590,ICEVAO,C21 H18 O2,COc1c2cc3ccccc3cc2c(OC)c2C3CC(C=C3)c12,5.55275524
11593,ICICIJ,C20 H14 N2 O2,O=C1c2ccccc2C(=O)c2c(NCc3ccccn3)cccc12,5.09642031
11594,ICIFOR,C38 H39 N5 O1,CN(C)c1ccc(cc1)C(=C1C=CC(C=C1)=C(C#N)C#N)C1=C(C(=C(C#CC(C)(C)O)C(C)(C)C)C1(C#N)C#N)C(C)(C)C,3.8860578899999996
11595,ICIFUX,C32 H33 N5,CN(C)c1ccc(cc1)C(=C(C#N)C#N)C1=C(C(=C(C#CC(C)=C)C(C)(C)C)C1(C#N)C#N)C(C)(C)C,5.19601397
11596,ICIFUY,C14 H10 N2 O4 S1,O=C(Nc1ccccc1)N1C(=O)c2ccccc2S1(=O)=O,5.905686899999999
11597,ICIGUZ,C22 H16 O2,CC(=O)Oc1ccc2cc3ccccc3cc2c1c1ccccc1,5.4996930299999995
11598,ICILIP,C9 H9 I1 S4,CC1=C(C)SC(S1)=C1SC(=C(I)S1)C,5.627042309999999
11599,ICILUB,C10 H12 S4,CC1=C(C)SC(S1)=C1SC(=C(C)S1)C,5.67112476
11600,ICIMAI,C12 H8 Br2 N2 S6,BrC1=C(Br)SC(S1)=C1SC(=C(SCCC#N)S1)SCCC#N,5.54976199
11601,ICIRAP,C32 H20,c1ccc2c(c1)C=Cc1ccccc1C2=C=C=C1c2ccccc2C=Cc2ccccc12,4.668657329999999
11602,ICIWIB,C32 H61 N5 P2,CC(C)N(C(C)C)P1(=C=P(N(C(C)C)C(C)C)(N(C(C)C)C(C)C)C(=N1)c1ccccc1)N(C(C)C)C(C)C,5.12798551
11603,ICIWOH,C28 H51 N5 P2,CC(C)N1CCN(C(C)C)P21=C=P(N(C(C)C)C(C)C)(N(C(C)C)C(C)C)C(=N2)c1ccccc1,5.531530350000001
11604,ICIZUP,C42 H24,c1ccc(cc1)c1c2cc3c4cccc5cccc(c3cc2c(c2ccccc2)c2c3cccc6cccc(c36)c12)c45,5.05859648
11605,ICOBOS,C34 H14 F12,FC(F)(F)c1cc(cc(c1)C(F)(F)F)C#CC(C#Cc1cc(cc(c1)C(F)(F)F)C(F)(F)F)=C1c2ccccc2c2ccccc12,4.97832289
11606,ICOBUY,C48 H28,c1ccc(cc1)C#CC(C#Cc1ccccc1)=C1c2ccccc2C(=C(C#Cc2ccccc2)C#Cc2ccccc2)c2ccccc12,4.74566555
11607,ICOGEP,C28 H40 As1 N1 O2,CC(C)(C)c1cc2N3[As](Oc2c(c1)C(C)(C)C)Oc1c3cc(cc1C(C)(C)C)C(C)(C)C,5.2594164999999995
11608,ICOHIT,C25 H28 O7,COC(C)C1(O)C=C2C(Cc3cc4cccc(OC)c4c(O)c3C2=O)C2OC(C)(C)OC12,5.88391779
11609,ICOJER,C13 H9 N1 S2,S1C=CC=C1C1=CC=C(S1)c1ccccn1,5.7396974499999995
11610,ICOMIZ,C19 H14 F2 O2,OC(C=Cc1ccc(F)cc1)=CC(=O)C=Cc1ccc(F)cc1,5.69643135
11611,ICOMOF,C21 H20 O4,COc1ccc(C=CC(=O)CC(=O)C=Cc2ccc(OC)cc2)cc1,6.04011114
11612,ICOMUL,C27 H16 N4 S1,N#CC(=CC1=C(C=C(S1)c1ccc(cc1)N(c1ccccc1)c1ccccc1)C#N)C#N,4.27599705
11613,ICOPEY,C11 H12 Br1 N1 O2,CNc1ccc(Br)cc1C=CC(=O)OC,5.8330325
11614,ICOTAV,C25 H17 F3 N2 O2,CCOC(=O)c1ccc(cc1)C1=C2N(c3ccccc13)C(=Nc1ccccc21)C(F)(F)F,5.81398453
11615,ICOXUT,C14 H13 N3 O2,CN1C(=O)N(C)C(=CC2=CNc3ccccc23)C1=O,5.69316598
11616,ICOYEE,C18 H10,c1ccc2c(c1)c1cc3c4ccccc4c3cc21,5.032745670000001
11617,ICUBAL01,C31 H29 N5 O2,CC(=O)Nc1cccc(CN(Cc2cccc(NC(C)=O)n2)Cc2c3ccccc3cc3ccccc23)n1,5.49370653
11618,ICUPUU,C36 H32,CC(C)(C)c1cc2c3ccccc3cc3c4cc(cc5c6ccccc6cc(c(c1)c23)c45)C(C)(C)C,5.05859648
11619,ICUQEF,C44 H36,CC(C)(C)c1cc2c3cc4ccccc4cc3cc3c4cc(cc5c6cc7ccccc7cc6cc(c(c1)c23)c45)C(C)(C)C,4.72634547
11620,ICUQIJ,C36 H30 F2,CC(C)(C)c1cc2c3ccc(F)cc3cc3c4cc(cc5c6ccc(F)cc6cc(c(c1)c23)c45)C(C)(C)C,4.88662053
11621,ICUQOP,C32 H28 S2,CC(C)(C)c1cc2c3C=CSc3cc3c4cc(cc5c6C=CSc6cc(c(c1)c23)c45)C(C)(C)C,4.84743613
11622,ICUQUV,C44 H36,CC(C)(C)c1cc2c3ccc4ccccc4c3cc3c4cc(cc5c6ccc7ccccc7c6cc(c(c1)c23)c45)C(C)(C)C,4.45232682
11623,ICURAB,C32 H30 O2,CCCOc1ccc(cc1)C(c1ccc(OCCC)cc1)=C1c2ccccc2c2ccccc12,5.80309998
11624,ICURAC,C44 H36,CC(C)(C)c1cc2c3cc4ccc5ccccc5c4c4cc(cc(c5cc6ccc7ccccc7c6c(c1)c25)c34)C(C)(C)C,4.60198944
11625,ICUZIQ,C16 H18 N4 O1,CN(C)C(=NNc1ccccc1)C(=O)Nc1ccccc1,6.353314190000001
11626,IDABUL,C29 H29 N1 O5,COC(=O)C1=C(c2ccccc2)C2(NC3(CCCCC3)C(=C)C2(C(=O)OC)C1=O)c1ccccc1,6.444200199999999
11627,IDAFIF,C19 H19 N3 O3 S1,CN1C(=NC(=Cc2ccccc2NS(=O)(=O)c2ccc(C)cc2)C1=O)C,5.59602133
11628,IDAKON,C10 H6 O1 S3,O=S1Sc2cccc3cccc(S1)c23,5.892353320000001
11629,IDALUV,C15 H14 N2 O2,CCNc1cccc2Oc3nc(C)ccc3C(=O)c12,5.69262175
11630,IDAQOW,C21 H16,Cc1ccc2cc3ccccc3cc2c1c1ccccc1,5.5100333599999995
11631,IDARAJ,C23 H18 O3,COC(=O)Oc1c2ccccc2cc2ccc(C)c(c3ccccc3)c12,5.5108497
11632,IDAREN,C21 H14 O2,Cc1ccc2C(=O)c3ccccc3C(=O)c2c1c1ccccc1,6.16936522
11633,IDARIP,C30 H28 B1 N3 O2,COc1ccc(cc1)N=NC1=C(O[B-]([N+](=C1C)C)(c1ccccc1)c1ccccc1)c1ccccc1,5.98596048
11634,IDAROV,C25 H26 B1 N3 O2,COc1ccc(cc1)N=NC1=C(C)O[B-]([N+](=C1C)C)(c1ccccc1)c1ccccc1,5.921741610000001
11635,IDARUB,C32 H32 B1 N3 O4,COc1ccc(cc1)N=NC1=C(C)O[B-]([N+](=C1C)c1ccc(OC)cc1OC)(c1ccccc1)c1ccccc1,6.02623333
11636,IDASAH,C8 H10 N4 S1,CNC(=S)NN=Cc1ccncc1,5.6817372
11637,IDASEL,C9 H12 N4 S1,CCNC(=S)NN=Cc1ccncc1,5.68935639
11638,IDASEM,C25 H26 B1 N3 O1,C[N+]1=C(C)C(=C(C)O[B-]1(c1ccccc1)c1ccccc1)N=Nc1ccc(C)cc1,6.01915838
11639,IDASIP,C9 H12 N4 S1,CNC(=S)NN=C(C)c1ccncc1,6.00636903
11640,IDASIQ,C24 H24 B1 N3 O2,COc1ccc(cc1)N1N=C(C(C)=O)C(=[NH+][B-]1(c1ccccc1)c1ccccc1)C,5.48853637
11641,IDASOV,C10 H14 N4 S1,CCNC(=S)NN=C(C)c1ccncc1,5.8006509500000005
11642,IDAWIU,C24 H24 N2 O2 P4,CN(C)P1(=O)P(P2c3cccc4cccc(c34)P2(=O)N(C)C)c2cccc3cccc1c23,5.827046
11643,IDAYES,C34 H22 Br1 N1,Brc1ccc2cc(cc(c3ccccc3)c2c1)c1ccc(cc1)N1c2ccccc2c2ccccc12,5.83439307
11644,IDBANT,C34 H16 O2,O=C1c2ccccc2c2ccc3c4ccc5C(=O)c6ccccc6c6ccc(c7ccc1c2c37)c4c56,4.0003457099999995
11647,IDEDIE,C20 H24 O5,COC12CC3C(C)(C)OC(CC=C(C)C)(C1=O)C13OC(=O)C=CC1=C2,6.39603606
11648,IDEFED,C30 H26,CC(C)(C)C1Cc2ccc3ccccc3c2C1=C1c2ccccc2c2ccccc12,5.38295619
11649,IDEFIH,C32 H22,C1C(c2ccccc2)C(c2c1ccc1ccccc21)=C1c2ccccc2c2ccccc12,5.372615870000001
11650,IDEHEE,C36 H41 N1 O16,COC1OC(COCc2ccccc2)C(OC2OC(COC(C)=O)C(OC(C)=O)C(OC(C)=O)C2OC(C)=O)C(O)C1N1C(=O)c2ccccc2C1=O,5.85888332