,ID,formula,smiles,HOMO_LUMO_gap
0,AACFAZ10,C26 H22 Cl2 N2 O6,COC1=C(C(OC1=O)c1ccccc1Cl)C(C)=NN=C(C)C1=C(OC)C(=O)OC1c1ccccc1Cl,5.636294179999999
1,ABADEO,C30 H28 N6 O2,CN1N(c2ccccc2)C(=O)C(=C1C)N=Cc1ccccc1C=NC1=C(C)N(C)N(c2ccccc2)C1=O,5.84146802
2,ABADUE,C17 H17 N1 O4,COc1cc(OC)c(C=CC(=O)c2ccccn2)c(OC)c1,5.82024315
3,ABAGAN,C26 H17 O1 P1,O=P1(c2ccccc2)c2ccc3ccccc3c2c2c3ccccc3ccc12,5.64772297
4,ABAJUK,C18 H16 Br1 N3 O3,COc1cc(Br)cc(C=NNC(=O)CC2=CNc3ccccc23)c1O,6.00283154
5,ABAKIZ,C14 H11 F1 N2,CCC(C=Cc1ccc(F)cc1)=C(C#N)C#N,5.768541519999999
6,ABALUM,C10 H9 Cl1 N4 O1,CC1=NNC(=O)C1=NNc1ccc(Cl)cc1,5.56636093
7,ABAMEX01,C23 H20 N4 O1,CC1=NN(C(=O)C1=C(Nc1ccccc1N)c1ccccc1)c1ccccc1,5.5905790600000005
8,ABAROL,C10 H8 S6,C1CC2=C(S1)SC(S2)=C1SC2=C(CSC2)S1,5.78160298
9,ABARUR,C10 H6 S6,C1SCC2=C1SC(S2)=C1SC2=CSC=C2S1,5.0599570499999995
10,ABATIJ,C23 H14 N4 O2,CN(C)c1ccc(cc1)C1=C(C#N)C(C#N)(C#N)C2=C(O1)c1ccccc1C2=O,4.918185729999999
11,ABATUV,C23 H14 N4 O2,CN(C)c1ccc(cc1)C(=C(C#N)C#N)C(C#N)=C1C(=O)c2ccccc2C1=O,4.30239209
12,ABAVAD,C30 H24 N4 O2,CN(C)c1ccc(cc1)C1=C(c2ccc(cc2)N(C)C)C(C#N)(C#N)C2=C(O1)c1ccccc1C2=O,4.708930179999999
13,ABAVEH,C31 H23 N3 O4,CCOC(=O)c1ccc(cc1)C1=C(OC2=C(C(=O)c3ccccc23)C1(C#N)C#N)c1ccc(cc1)N(C)C,4.9470298
14,ABAVIL,C50 H32 N4 O2,O=C1c2ccccc2C2=C1C(C#N)(C#N)C(=C(O2)c1ccc(cc1)N(c1ccccc1)c1ccccc1)c1ccc(cc1)N(c1ccccc1)c1ccccc1,4.59763562
15,ABAVUX,C29 H18 N4 O2,CN(C)c1ccc(cc1)C(=C(C#N)C#N)C(c1ccc(cc1)C#N)=C1C(=O)c2ccccc2C1=O,4.90784541
16,ABAWAE,C29 H18 N4 O2,CN(C)c1ccc(cc1)C1=C(c2ccc(cc2)C#N)C(C#N)(C#N)C2=C(O1)c1ccccc1C2=O,4.97886712
17,ABECAL,C28 H18,c1ccc(cc1)c1ccc(cc1)c1cc2cc3cccc4cccc(c2c1)c34,4.4204895
18,ABEDIU,C28 H30 N4 O4 S4,C=CCOCC1=CSC(=N1)C1=NC(=C(S1)C1=C(COCC=C)N=C(S1)C1=NC(=CS1)COCC=C)COCC=C,5.342139120000001
19,ABEDOA,C28 H38 N4 O8 S4,OCCCOCC1=CSC(=N1)C1=NC(=C(S1)C1=C(COCCCO)N=C(S1)C1=NC(=CS1)COCCCO)COCCCO,5.29424707
20,ABEDUJ,C26 H29 Cl2 N5 O3,COc1cc(Nc2c(cnc3cc(OCCCN4CCN(C)CC4)c(OC)cc23)C#N)c(Cl)cc1Cl,5.88310145
21,ABEFAP,C16 H16 N2 O3 S1,COc1ccc(cc1)C(=O)NC(=S)Nc1ccccc1OC,6.22705336
22,ABEFOE01,C46 H34 O2,O=C(C=C(c1ccccc1)C(=CC=C(c1ccccc1)C(=CC(=O)c1ccccc1)c1ccccc1)c1ccccc1)c1ccccc1,5.7296292300000005
23,ABEGEV,C46 H36 O2,O=C(C(CC1(C=C(C=C(C1C(=O)c1ccccc1)c1ccccc1)c1ccccc1)c1ccccc1)c1ccccc1)c1ccccc1,5.9992940599999995
24,ABEGIY,C13 H10 O2,O=C1OC(=CC=C1)C=Cc1ccccc1,5.764731920000001
25,ABEJIC,C30 H18,c1ccc2c(c1)cccc2C#Cc1ccccc1C#Cc1cccc2ccccc12,5.76527615
26,ABEKEY,C11 H10 N2 S1,N(N=CC1=CC=CS1)c1ccccc1,5.97725284
27,ABEKUO,C16 H15 N3 O3,CC(=NOCC(O)=O)c1ccccc1N=Nc1ccccc1,6.213719769999999
28,ABELID,C16 H12 N2 O3,OC1(Cc2ccccc2)c2ccccc2[N+]2=NOC(=C12)[O-],6.0109949600000006
29,ABEMAY,C22 H21 Cl1 F1 N3 O1,CCCCCNC(=O)c1c2cc(F)ccc2nc2N(C)c3cc(Cl)ccc3c12,5.8605160000000005
31,ABEPIJ,C19 H15 Cl1 N2 O3,COc1ccc2N(C)C(=O)C(c2c1)=C1C(=O)N(C)c2ccc(Cl)cc12,4.615595130000001
32,ABEQOO,C26 H33 Cl3 O6,Cc1c(O)cc2C(=O)C3(CC4C(C)(O)CCC(Cl)C4(C)C)OC(C)(C)C(Cl)CC3(Cl)C(=O)c2c1O,6.84584026
33,ABERII,C15 H14 O3,CC1=C2C(=O)C=C(C)C2=CC2=C(C)C(=O)OC2C1,5.7938481
34,ABESOS,C16 H9 F1 N2 O1 S1,Fc1ccc(cc1)C(=O)C1=CN2C(=Nc3ccccc23)S1,5.8703121000000005
35,ABESUY,C17 H12 N2 O1 S1,Cc1ccc(cc1)C(=O)C1=CN2C(=Nc3ccccc23)S1,5.971266330000001
36,ABEXOX,C42 H36 N2 O4,COc1ccc(cc1)N(c1ccc(OC)cc1)c1ccc2cc3cc(ccc3cc2c1)N(c1ccc(OC)cc1)c1ccc(OC)cc1,5.02893607
37,ABHYTZ,C9 H10 N6 O1 S1,NN1C(=S)NN=C1NNC(=O)c1ccccc1,5.97425959
39,ABIFAU,C22 H16 O4 S1,COC(=O)C1=C(C(=O)OC)C2=CC3c4ccccc4C2(S1)c1ccccc31,5.86867942
40,ABILOM,C30 H24 O2 S4,O=C1C2=CC=CC=C1SCc1cccc(CSC3=CC=CC=C(SCc4cccc(CS2)c4)C3=O)c1,5.37615335
41,ABILUS,C23 H20 O1 S4,O=C1C2=CC=CC=C1SCc1cccc(CSSCc3cccc(CS2)c3)c1,5.50377474
42,ABISIN,C27 H27 N1 O1,CN(C)C12CC(=O)C3(CCCCC13)C(=C2C#Cc1ccccc1)c1ccccc1,5.93453096
44,ABIVAL,C17 H17 N1 O4,CCC1=C(C)C2=Cc3c(OC)cc(OC)cc3C(=O)N2C1=O,5.40145993
45,ABIVUD,C10 H8 N8,N1N=C(NN=C1c1cnccn1)c1cnccn1,5.57860605
46,ABIWAM,C24 H20 N2 O2 S1,Cc1ccc(cc1)S(=O)(=O)N1c2ccc(C)cc2c2c(N)cc3ccccc3c12,5.8994282799999995
47,ABIWEQ,C25 H22 N2 O4 S1,COc1cc2cc(N)c3c4ccccc4N(c3c2cc1OC)S(=O)(=O)c1ccc(C)cc1,5.69343809
50,ABIYOC,C25 H19 I2 N1,CC1=C2N(CC(=C(I)C2(c2ccccc2)c2ccccc2)I)c2ccccc12,6.0216074
51,ABIZAP01,C13 H7 N1 O2 S1,O=C1N2CC3=C(SC=C3)c3cccc(C1=O)c23,5.58132719
52,ABIZOD,C15 H12 Br2 N2 O2 S1,CN(C)c1ccc(Br)c2N(CC3=C(Br)SC=C3)C(=O)C(=O)c12,5.4994209199999995
53,ABODUR,C17 H21 N3 O3,CCN(CC)C1=CC=CC=CC1=C1C(=O)N(C)C(=O)N(C)C1=O,5.527992869999999
54,ABOFUT,C39 H37 N1 O3,COc1ccc(cc1C1C(C(ON1c1ccccc1)c1ccc(C)cc1)C(=O)c1ccccc1)C(C)(C)c1ccccc1,6.20337945
55,ABOJUX,C18 H10 S8,S=C1SSC(=C1SSC1=C(SSC1=S)c1ccccc1)c1ccccc1,5.2297560999999995
56,ABOJUZ,C21 H20 O3,CCCCCCOC1=CC2=CC(=O)Oc3ccc4cccc1c4c23,5.1698910499999995
57,ABOKAE,C10 H8 S4,CSC1=C(SSC1=S)c1ccccc1,5.415337730000001
58,ABOKIN,C32 H25 N1 O4 S1,CCN1c2ccc(cc2Sc2cc(ccc12)C(=O)C=C(O)c1ccccc1)C(=O)C=C(O)c1ccccc1,4.80498637
59,ABONEK,C29 H23 N11 O4,Nc1cccc(NC(=O)c2cccc(n2)C(=O)Nc2cccc(NC(=O)c3cccc(n3)C(=O)Nc3cccc(N)n3)n2)n1,5.5639119
60,ABORIT,C17 H15 Br1 N2 O1,Brc1ccc(cc1)C1=CC(=C(C#N)C1=O)N1CCCCC1,5.28826057
61,ABOROA,C16 H12 F1 N3 O1 S2,Fc1ccc2NC(=O)C(=NNC(=S)SCc3ccccc3)c2c1,5.23628682
62,ABORUG,C16 H12 Br1 N3 O1 S2,Brc1ccc2NC(=O)C(=NNC(=S)SCc3ccccc3)c2c1,5.39411286
63,ABOSAN,C16 H12 Cl1 N3 O1 S2,Clc1ccc2NC(=O)C(=NNC(=S)SCc3ccccc3)c2c1,5.44717506
64,ABOTER,C16 H16 N2 O2 S1,CC(C1=CC=CS1)=C1OC(=O)C(=C1N1CCCCC1)C#N,5.52037368
65,ABTBTR,C9 H15 N1 S1,CN(C)C(=C=C=S)C(C)(C)C,5.38867058
66,ABTITZ,C15 H10 N2 S2,NC1=C(Sc2ccccc12)C1=NSc2ccccc12,5.50676799
67,ABUFAG,C18 H15 N1 O4,COc1ccc(cc1OC)C=C1N=C(OC1=O)c1ccccc1,5.142135440000001
68,ABUHEN,C24 H23 N3 S1,S=C(NN=Cc1ccc2ccc3cccc4ccc1c2c34)NC1CCCCC1,4.4950487
69,ABUHIR,C18 H10 Br1 N1 O2,Brc1ccc2NC=C(C3=CC(=O)c4ccccc4C3=O)c2c1,5.005534279999999
70,ABUJAL,C32 H22 N4 O2,O=C1N(N2C(=Nc3ccccc3C2=O)C=Cc2ccccc2)C(=Nc2ccccc12)C=Cc1ccccc1,5.879019740000001
71,ABUJOZ,C16 H12 N2 O2,O=C1C=C(NCc2ccccn2)C(=O)c2ccccc12,5.607177999999999
72,ABULUE,C30 H34 O4,COC(=O)C1=CC(=CC2=C(C)C=C(C)C=C(C)C2=C1C(=O)OC)c1c(C)c(C)c(C)c(C)c1C,5.9206531600000005
73,ABUMAL,C31 H34 O4,COC(=O)c1c(C)c2c(C)c(C)c(C)c3C=C(c4c(C)c(C)c(C)c(C)c4C)c(c1C(=O)OC)c23,5.78541258
74,ABUMEP,C32 H38 O4,COC(=O)C1=CC(=CC2=C(C)C(=C(C)C(=C(C)C2=C1C(=O)OC)C)C)c1c(C)c(C)c(C)c(C)c1C,5.7805145300000005
75,ABUQEV,C31 H22 O5,COc1cccc2c1C(=O)CC1CC(=O)c3ccccc3C3=C4C=CC(=O)c5c(OC)ccc(c45)C213,5.3905753800000005
76,ABUQOF,C33 H28 O6,COCOc1ccc2C(c3ccccc3C(C)=O)C3(C=CC(=O)c4c(OC)cccc34)c3ccc(OC)c1c23,5.87575437
77,ABURIA,C18 H6 Br2 F6 O6 S2,FC(F)(F)S(=O)(=O)Oc1c(OS(=O)(=O)C(F)(F)F)c2cccc3c(Br)c(Br)c4cccc1c4c23,5.65289313
78,ABUSAT,C48 H46 S4,CCCCC1=Cc2c(S1)c1c3cccc4c5c6SC(=Cc6c6C=C(CCCC)Sc6c5c5cccc(c1c1SC(=Cc21)CCCC)c5c34)CCCC,5.38186774
79,ABUTID,C24 H23 N1 O2,Cc1ccc(cc1)C1=C2C(=O)c3ccccc3C2=C(NC2CCCCC2)O1,4.99192859
80,ABUVAW,C22 H11 Cl1 N2 O4,COC(=O)c1c2nc3ccccc3nc2c(Cl)c2C(=O)c3ccccc3C(=O)c12,5.3200978899999996
81,ABUVAX,C23 H18 O2 S1,Cc1ccc(SC2=C(c3ccccc3)c3cccc(C)c3OC2=O)cc1,5.9843278
82,ABUVEA,C23 H13 Cl1 N2 O5,COC(=O)c1c2nc3ccc(OC)cc3nc2c(Cl)c2C(=O)c3ccccc3C(=O)c12,5.255334790000001
83,ACAFOA01,C14 H15 N3 O1 S1,COc1ccc(NC(=S)NCc2ccccn2)cc1,5.82786234
84,ACAMEL,C10 H8 O4,COC1=CC(=O)C2=C(OC(=C2)C)C1=O,6.046369749999999
85,ACAMOJ,C22 H18 O2,C=CCOc1ccc2ccccc2c1C=CC(=O)c1ccccc1,5.61779045
86,ACAMUP,C28 H22 O2,C=Cc1ccc(COc2ccc3ccccc3c2C=CC(=O)c2ccccc2)cc1,5.41642619
87,ACAPRE,C18 H21 N3 O1,OCCNCCCNc1c2ccccc2nc2ccccc12,5.32635651
88,ACAYOV,C31 H23 O3 P1,Cc1cccc(C)c1C1=C2C=CC(=O)C=C2P(=O)(c2ccccc2)c2cc3cc(O)ccc3cc12,4.86593988
89,ACDANT,C30 H14 O2,O=C1c2ccccc2C2=C3c4cccc5C(=O)c6ccccc6C(=C3c3cccc1c23)c45,4.5298792699999995
90,ACEDAN01,C17 H4 F10,Fc1c(F)c(F)c(c(F)c1F)C1=CC=C(C1)c1c(F)c(F)c(F)c(F)c1F,5.72663598
91,ACEDES,C20 H22 O6,COC(=O)C1=C(C(=O)OC)C2(OCC(C)(C)CO2)C(=C1)c1ccccc1,6.06215236
92,ACEDIW,C21 H24 O7,COC(=O)C1=C(C(=O)OC)C2(OCC(C)(C)CO2)C(=C1)c1ccc(OC)cc1,5.85670641
93,ACEFAS,C29 H23 N1 O4,CC(=O)Oc1ccc2c(Oc3c4CCCN5CCCc(cc3C3=C2C(=O)c2ccccc32)c45)c1,4.70702539
94,ACEFEW,C26 H23 N1 O2,Cc1ccccc1C1=C2C=CC(=O)C=C2Oc2c3CCCN4CCCc(cc12)c34,4.6659362
95,ACEFIA,C27 H21 N1 O3,Oc1ccc2c(Oc3c4CCCN5CCCc(cc3C3=C2C(=O)c2ccccc32)c45)c1,4.6515141600000005
96,ACEFIZ,C13 H10 N2 O3,OC(=O)c1cc(ccc1O)N=Nc1ccccc1,6.36038915
97,ACEFOG,C29 H23 N3 O4,CC(=O)Oc1ccc2c(Oc3c4CCCN5CCCc(cc3C32c2ccccc2C(=O)C3=[N+]=[N-])c45)c1,5.71738411
98,ACEFUM,C29 H23 N3 O4,CC(=O)Oc1ccc2c(Oc3c4CCCN5CCCc(cc3C32c2ccccc2C(=O)C23N=N2)c45)c1,5.34676505
99,ACEHIA,C30 H29 N1 O12,CN1C(=O)c2cccc3c(ccc(C1=O)c23)C#CCOC1OC(COC(C)=O)C(OC(C)=O)C(OC(C)=O)C1OC(C)=O,5.896162909999999
100,ACEJEX,C16 H13 N1 O1,Cc1cc([nH+]c2ccccc12)c1ccccc1[O-],4.498586179999999
101,ACEJUO,C46 H33 N3 O2 S1,COC1=C2SC(=C1OC)C(=C1C=CC(=N1)C(=C1NC(=C(c3ccccc3)C3=NC(=C2c2ccccc2)C=C3)C=C1)c1ccccc1)c1ccccc1,4.00252263
103,ACEPIK01,C40 H24 N2 O6,O=C1N(C(=O)c2cc(ccc12)c1ccc2C(=O)N(C(=O)c2c1)c1ccc(Oc2ccccc2)cc1)c1ccc(Oc2ccccc2)cc1,5.85752275
104,ACEQOR,C18 H10 Cl2 N2 O2,Clc1ccc(cc1)C1=C2NC(=O)C(=C2NC1=O)c1ccc(Cl)cc1,5.787317379999999
105,ACETOS,C17 H13 N1 O1,Oc1ccc(C=Cc2ccccc2)c2cccnc12,5.5998309299999995
106,ACETUZ,C40 H25 N4 O1 P1,O=P1(c2ccccc2)C(=C2c3cccc4cccc(c34)C2=C1c1cccc(n1)c1ccccn1)c1cccc(n1)c1ccccn1,4.848252479999999
107,ACEVAH,C44 H29 O1 P1,O=P1(c2ccccc2)C(=C2c3cccc4cccc(c34)C2=C1c1ccc(cc1)c1ccccc1)c1ccc(cc1)c1ccccc1,5.34676505
108,ACEVUA,C15 H13 Cl1 N2 O2 S1,COc1ccc(cc1)C(=O)NC(=S)Nc1ccccc1Cl,6.21562457
109,ACEWAH,C20 H15 N1 O1,COc1ccccc1N=C1c2ccccc2c2ccccc12,5.95031357
110,ACEZEP,C35 H49 Br1 N6 O8,COC(=O)C1CCCN1C(=O)C(C)(C)NC(=O)C1CCCN1C(=O)C(C)(C)NC(=O)C1CCCN1C(=O)C(C)(C)NC(=O)c1ccc(Br)cc1,5.72337062
111,ACEZIS,C15 H13 Br1 N2 O2 S1,COc1ccc(cc1)C(=O)NC(=S)Nc1ccccc1Br,6.19412758
112,ACICAR01,C18 H14 N4,c1cncc(c1)C=Nc1ccc(cc1)N=Cc1cccnc1,5.976164389999999
113,ACICEU,C23 H18 O3,CCCOC12C(=O)C=Cc3cccc(Oc4ccc5ccccc5c14)c23,5.9584769799999995
114,ACICEW,C22 H15 Cl1 N2 O3,OC12N(N=C(c3ccc(Cl)cc3)C1(O)C(=O)c1ccccc21)c1ccccc1,5.56363979
115,ACIFOH,C21 H16 N2 O1,COc1ccc(cc1)C=NN=C1c2ccccc2c2ccccc12,5.82813445
116,ACIGRA,C30 H27 I1 O14,CC1OC2CC(=O)OC2C2=C1C(=O)c1c(OC(C)=O)c3c(C4CC(OC(=O)CI)C3(OC(C)=O)C(C)O4)c(OC(C)=O)c1C2=O,6.042832280000001
117,ACIJEC,C6 H11 N1 O2,[NH3+]C(CCC(=O)[O-])C=C,5.1320672200000015
118,ACIJIF,C26 H20 P2,c1ccc(cc1)[P+](c1ccccc1)(c1ccccc1)c1[p-]cc2ccccc12,5.15492478
119,ACIJOL,C38 H29 P3,c1ccc(cc1)P(c1ccccc1)c1[p-]c(c2ccccc12)[P+](c1ccccc1)(c1ccccc1)c1ccccc1,5.04226965
120,ACIKAY,C38 H29 P3 S1,S=P(c1ccccc1)(c1ccccc1)c1[p-]c(c2ccccc12)[P+](c1ccccc1)(c1ccccc1)c1ccccc1,5.1913880400000005
121,ACILEF,C10 H13 N3 S2,CSC(=S)NN=C(C)c1ccccc1N,6.043920740000001
123,ACIVIS,C26 H23 O1 P1,COc1ccccc1C=P(c1ccccc1)(c1ccccc1)c1ccccc1,5.09560396
124,ACIWOZ,C20 H18 N4 S2,S=C(Nc1ccccc1)Nc1ccccc1NC(=S)Nc1ccccc1,6.20991018
125,ACIXAN,C24 H19 Cl1 N2 O4,COc1ccc(cc1)C1=CC(=CN2C(=O)C(=C(COC(C)=O)N=C12)c1ccccc1)Cl,5.71602354
126,ACIXAO,C23 H25 N1 O2 S1,CC(C)(C)S(=O)NC=C1C(CC(=CC1=O)c1ccccc1)c1ccccc1,6.04827456
127,ACLMSA,C19 H23 Cl1 N4 O3 S1,CCN(CC)c1ccc(N=Nc2ccc(cc2Cl)S(C)(=O)=O)c(NC(C)=O)c1,4.95519322
128,ACMTHZ,C5 H7 N3 O2 S1,COC(=O)[N-]C1=C[N+](=NS1)C,6.22133896
129,ACNPHA,C16 H15 I1 O6,COC(=O)c1cc(OC(C)=O)c2c(OC)cc(OC)c(I)c2c1,5.94269438
130,ACNPHB,C14 H13 I1 O5,COC(=O)c1cc(O)c2c(OC)cc(OC)c(I)c2c1,5.94949723
131,ACNPTH10,C29 H24 O5,CCOC(=O)C12C3C=CC=CC(C=C3)C(C(=O)OCC)(C1=O)C1=C2c2cccc3cccc1c23,5.883101450000001
132,ACOBIF,C25 H22 N2 O1,Cc1ccc(cc1)C=CC(=O)C(=NN1CCc2ccccc12)c1ccccc1,5.603640520000001
133,ACOFUV,C44 H50 O2,CCCCCCCOc1ccc(cc1)C=Cc1c2ccccc2c(C=Cc2ccc(OCCCCCCC)cc2)c2ccccc12,5.03328989
134,ACOKUA,C16 H13 Cl1,ClC(=CC=Cc1ccccc1)c1ccccc1,5.64146435
135,ACOLAH,C18 H11 Cl1 N2,ClC(=CC=Cc1ccc(cc1)C#N)c1ccc(cc1)C#N,5.53316304
136,ACOPAM,C29 H36 O4,CC1C2CC(OC(=O)C=Cc3ccccc3)C3(O)C(C)(C)CCCC3(C)C2CC2=C1C=CO2,6.040927480000001
137,ACOQIS,C23 H22 N6 O5,CC1(C)OC2C(OC(C2O1)N1C=Nc2c(N)ncnc12)C=CCN1C(=O)c2ccccc2C1=O,5.714118750000001
139,ACOSOC,C37 H45 N5 O1,CN(C)c1ccc(cc1)C(=O)C1=C2NC(=C1)C(C)(C)C1=CC=C(N1)C(C)(C)C1=CC=C(N1)C(C)(C)C1=CC=C(N1)C2(C)C,5.83439307
140,ACOTIX,C24 H22 N2 O1,Cc1ccc(cc1)N1C(=O)c2c3cc(C)ccc3nc3CC(C)(C)C=C1c23,5.882557220000001
141,ACOTOD,C23 H19 Cl1 N2 O1,Cc1ccc(cc1)N1C(=O)c2c3cc(Cl)ccc3nc3CC(C)(C)C=C1c23,5.5775176
142,ACOTUI,C25 H22 O6,COc1cc2c(OCc3ccccc3)c3cc4OCOc4cc3cc2c(OC)c1OC,5.57642914
143,ACOVAQ,C41 H40 O1 S4,CCCCCCC1=CC=C(S1)C1=CC=C(S1)c1ccc2c(c1)C(=O)c1cc(ccc21)C1=CC=C(S1)C1=CC=C(CCCCCC)S1,4.5755944
144,ACROEY,C15 H8 Cl3 N1 O2 S1,ClC(=O)[C-]([n+]1c2ccccc2c(Cl)c2ccccc12)S(Cl)=O,4.204975330000001
145,ACUDEI01,C42 H26,c1ccc(cc1)C12c3ccccc3c3c4ccccc4c4c5ccccc5C(c5ccccc5)(c5ccccc15)c4c23,5.556836939999999
146,ACUFAG,C18 H15 N3 O2,CN1C(=O)N(C)C2=C(C1=O)C1=C3CC(=CC=CC1=N2)C=CC=C3,4.453959510000001
147,ACUKUG,C18 H15 N3,CC(c1ccc2cc(ccc2c1)N1CCC1)=C(C#N)C#N,5.23819162
148,ACULAN,C19 H17 N3,CC(c1ccc2cc(ccc2c1)N1CCCC1)=C(C#N)C#N,5.16172763
149,ACULER,C21 H21 N3,CC1CCN(CC1)c1ccc2cc(ccc2c1)C(C)=C(C#N)C#N,5.34322757
150,ACULIV01,C19 H17 N3,CN(C)c1ccc2c(ccc3c2CCCC3=C(C#N)C#N)c1,5.26458666
151,ACULUH,C16 H13 N3,CN(C)c1ccc2cc(ccc2c1)C=C(C#N)C#N,4.9606355
152,ACUNOD,C22 H18 O6,COc1ccc(cc1)C(=O)C1=C(OC(=CC(C)=O)C1=O)c1ccc(OC)cc1,5.687995819999999
153,ACUNOE,C22 H19 N3 O1 S2,CSC(=Nc1c(C)cccc1C)C1=C(C#N)C(=C(S1)C(=O)c1ccccc1)N,5.64554606
155,ACUTUP,C19 H28 N2 O2 S1,CCCC1N(OC(C)C=C1C=NS(=O)C(C)(C)C)c1ccccc1,6.29916352
157,ACUVUS,C19 H20 O6,COc1ccc(cc1)C(O)=CC(=O)c1cc(OC)c(OC)c(OC)c1,5.95167414
158,ACUWAZ,C18 H10 S2,S1C=CC2=C1c1cc3cc4ccccc4cc3cc1S2,4.90784541
159,ACUYAA,C22 H19 N1 O1,CN1C(C(C(=O)c2ccccc2)c2ccccc12)c1ccccc1,6.00011041
160,ACUYII,C23 H18 N2 O1,CN1C(C(C(=O)c2ccccc2)c2cc(ccc12)C#N)c1ccccc1,5.7622829
161,ACUYOO,C30 H25 N1 O2,CN1C(c2ccccc2)C(C(=O)c2ccccc2)(C(=O)c2ccc(C)cc2)c2ccccc12,5.45697116
162,ADADOA,C25 H19 N1,C1Cc2ccc3ccccc3c2C(C1)=C1C2=CC=CN2c2ccccc12,5.4398279800000005
163,ADAGAQ,C23 H18 N2 O2,COc1ccc(cc1)C(=O)NN=Cc1c2ccccc2cc2ccccc12,5.4988766899999995
164,ADAGOD,C20 H17 N1,CC1=CCN2c3ccccc3C=C2C(=C1)c1ccccc1,5.90214941
165,ADAHET,C8 H7 N3 S2,Nc1ccc2C(=S)NC(=S)Nc2c1,6.01235553
166,ADAHEV,C42 H20 Br2 F4,Fc1cc2c(cc1F)c(c1cc(F)c(F)cc1c2c1c2ccccc2c(Br)c2ccccc12)c1c2ccccc2c(Br)c2ccccc12,4.8509736100000005
167,ADAJAR,C21 H17 N5,CC1=NN(c2ccccc2)c2nc3N(N=C(C)c3cc12)c1ccccc1,5.94949723
168,ADAJOF,C17 H12 N2 O5,Oc1ccccc1C(=O)NNC(=O)C1=Cc2ccccc2OC1=O,5.98051821
169,ADAKAS,C20 H12 F6 N2 S2,CC1=CC(=C(C)S1)C1=C(C2=C(C)SC(=C2)C=C(C#N)C#N)C(F)(F)C(F)(F)C1(F)F,5.769085749999999
170,ADANAV,C19 H18 Cl1 N3 O1,CCCNC1=NC(=Cc2ccccc2)C(=O)N1c1ccc(Cl)cc1,5.82214795
171,ADAXEL,C20 H18 Cl1 N3 O1,Cc1ccc(Cl)cc1N1CCC2=NN(C(=O)C2=C1C)c1ccccc1,6.05861488
172,ADAYIQ,C17 H20 N2 O3 S2,CCN(CC)c1ccc(cc1)C=C1SC(=S)N(CCC(O)=O)C1=O,5.03519469
173,ADAYOW,C17 H9 Br1 N2 O2,Brc1ccc(NC(C#N)=C2C(=O)c3ccccc3C2=O)cc1,5.6988803699999995
174,ADDHMP,C20 H16 Cl2 O7,CCC(=O)C12C(C(C)C(=O)c3c(O)cc(Cl)c(OC(C)=O)c13)C(=O)C(=CC2=O)Cl,6.5590322500000005
175,ADEBER,C38 H42 N4,Cc1cccc(C)c1N=C(C)C(=Nc1c(C)cccc1C)C(=Nc1c(C)cccc1C)C(C)=Nc1c(C)cccc1C,6.297530849999999
176,ADECUI,C18 H14 O1,COCc1ccc2ccc3cccc4ccc1c2c34,5.6485392999999995
177,ADEGAS,C14 H17 Cl1 N2 O3,CCOC(=O)C(=NNc1c(C)cccc1C)C(=O)CCl,5.97371536
178,ADELON,C18 H13 F5 N2 O1,CC(C)(C1=CC=CN1)C1=CNC(=C1)C(=O)c1c(F)c(F)c(F)c(F)c1F,6.017253569999999
179,ADEMUS,C25 H28 N2 O4 S1,CCOC(=O)C1=C(C)NC(=C(C1C1=CC=CS1)C(=O)OCC)C=NC(C)c1ccccc1,6.08120033
180,ADENUT,C18 H12 N2 O1,O=C1N2C(Nc3cccc4cccc2c34)c2ccccc12,5.89616291
181,ADEREH,C16 H12 O3,O=C(C=Cc1ccc2OCOc2c1)c1ccccc1,6.0284102399999995
182,ADESAE,C18 H16 Cl2 O4,COc1cc(OC)c(C=CC(=O)c2ccc(Cl)cc2Cl)cc1OC,5.81235184
183,ADESOS,C9 H8 N4 O1 S1,NN1C(=S)NN=C(C1=O)c1ccccc1,6.0594312299999995
184,ADEVUB,C29 H22 F6 O2 S2,COc1cccc(c1)C1=CC(=C(S1)C1=C(C2=C(C)C=C(S2)c2cccc(OC)c2)C(F)(F)C(F)(F)C1(F)F)C,5.547040840000001
185,ADEXEN,C23 H27 N3 O2,CCCN(CCC)C1=NC(=Cc2ccc(OC)cc2)C(=O)N1c1ccccc1,5.63711053
186,ADEYOY,C15 H15 Cl1 N2 O1,CC(C)c1cc(ccc1O)N=Nc1ccc(Cl)cc1,6.184875700000001
187,ADEZAL,C12 H11 N3 O1 S1,S=C(NN=CC1=CC=CO1)Nc1ccccc1,5.927456
188,ADICUM,C20 H21 N3 O4,COc1cc2CCN(Cc2cc1OC)CC1=[N+]([O-])ON=C1c1ccccc1,6.1293644800000004
189,ADIDAU,C40 H52 N6 O2,CC1(C)C2CC3N(Cc4ccc(cc4)C#N)C4CC(N2Cc2ccc(cc2)C#N)C1(CN1CCOCC1)C3(CN1CCOCC1)C4(C)C,6.45644533
190,ADIDUP,C14 H8 N4 O2,O=C1N(N2C=NN=C2)C(=O)c2cccc3cccc1c23,6.08092821
191,ADIFAX,C16 H13 N5 O2,CN(C)c1ccc2C(=O)N(N3C=NN=C3)C(=O)c3cccc1c23,5.36608513
192,ADIFUQ,C36 H36 N4 O3 S1,CCN(CC)c1ccc2c(Oc3cc(ccc3C32N(C(=O)c2ccccc32)C2=Nc3ccc(OC)cc3S2)N(CC)CC)c1,5.88337356
193,ADIGAX,C35 H33 Br1 N4 O2 S1,CCN(CC)c1ccc2c(Oc3cc(ccc3C32N(C(=O)c2ccccc32)C2=Nc3ccc(Br)cc3S2)N(CC)CC)c1,5.86323713
194,ADIGUR,C24 H14 Cl1 N1 O3,CC1=CC2=C(C(=O)c3ccc(Cl)cc3)C3=C(N2C=C1)C(=O)c1ccccc1C3=O,5.11546827
195,ADIJUV,C25 H17 N1,N#CC=C(c1ccccc1)C(=Cc1ccccc1)C#Cc1ccccc1,5.71330241
196,ADIKEG,C25 H18 O1,O=CC=C(c1ccccc1)C(=Cc1ccccc1)C#Cc1ccccc1,5.656430609999999
197,ADIMEH,C26 H19 Cl1 N2 O2,Oc1ccccc1C=Nc1ccccc1N=C(c1ccccc1)c1cc(Cl)ccc1O,5.8999725000000005
198,ADIMOQ,C22 H29 N1,CC(C=CC1=C(C)CCCC1(C)C)=CC1=CC(CCC1)=CC#N,5.61833468
199,ADIMUV,C29 H42 N4 O3,OCCN1CCN(CCO)CCN(CCN(CCO)CC1)Cc1c2ccccc2cc2ccccc12,5.58404833
200,ADIQEK,C27 H34 O4 S2,COC(=O)C1=C(SC(S1)=CC=C(C)C=CC=C(C)C=CC1=C(C)CCCC1(C)C)C(=O)OC,4.733148310000001
201,ADIQIO,C28 H18 N2 O4 S2,COC(=O)C1=C(SC(S1)=CC#Cc1ccc(cc1)C1=CC2=CC=CC=CC2C1(C#N)C#N)C(=O)OC,4.6999504199999995
202,ADISEM,C31 H25 N1 O1,CN1c2ccccc2C(C)(C)C21Oc1ccc3ccccc3c1c1c3ccccc3ccc21,5.90078885
203,ADISIR,C14 H20 N6 S2,CNC(=S)NN=C(C)c1cccc(c1)C(C)=NNC(=S)NC,5.8313998100000015
204,ADITIR,C33 H20 O2,O1c2ccccc2c2ccccc2C21Oc1ccc3ccccc3c1c1c3ccccc3ccc21,5.7892221699999995
205,ADIVIT,C12 H4 N6,N#Cc1nc2nc3ccccc3nc2nc1C#N,5.481733520000001
206,ADIVOZ,C14 H8 N6,Cc1cc2nc3nc(C#N)c(nc3nc2cc1C)C#N,5.3301661
207,ADIVUF,C14 H8 N6 O2,COc1cc2nc3nc(C#N)c(nc3nc2cc1OC)C#N,5.39057538
208,ADODAZ,C20 H20 N2 O2,O=C1C(Oc2ccccc12)=CN1CCN(CC1)Cc1ccccc1,5.961198120000001
209,ADOGEG,C11 H8 N2 O1,O=C1NC2=C(Cc3cccnc23)C=C1,5.97806918
210,ADOHOS,C38 H24 N2,Nc1ccccc1C#Cc1ccccc1C#Cc1ccc(cc1)C#Cc1ccccc1C#Cc1ccccc1N,5.40200416
211,ADOTUJ,C18 H17 N3 O1,Cc1ccc(cc1)N=NC1=C(CCC1=O)Nc1ccccc1,5.46459035
212,ADOVAR,C21 H15 N3 O1,O=C1c2ccccc2C(=Nc2ccccc2)C1=NNc1ccccc1,5.55166678
213,ADOXAV,C9 H9 N5,CN1C=NC(=N1)N=Nc1ccccc1,6.77345797
214,ADOXEZ,C10 H10 N4,CN1C=NC(=C1)N=Nc1ccccc1,6.4499146
215,ADUCEK,C25 H22 N2,CN(C)c1ccc(cc1)c1ccccc1C=Cc1ccc2ccccc2n1,5.5973819
216,ADUDIO,C19 H11 Br1 Cl2 N2 O4 S1,COC(=O)C=C1SC(=NC(=O)c2ccccc2Br)N(C1=O)c1ccc(Cl)cc1Cl,6.02922658
217,ADUFEM,C22 H21 N5 O2,CN1N(C(=O)C(=C1C)NCC(=O)Nc1cccc2cccnc12)c1ccccc1,6.28365303
218,ADUNAR,C25 H18 F1 N3 O1,COc1ccc(cc1)C1=NN(c2ccccc2)C(=C1)c1ccc2cc(F)ccc2n1,5.754935829999999
219,ADUQOG,C34 H24 N2 O6,O=C(C(=O)C1=Cc2cc3OCOc3cc2N1Cc1ccccc1)C1=Cc2cc3OCOc3cc2N1Cc1ccccc1,5.9587491
220,ADUQUM,C32 H22 N2 O2,O=C1C2=C(C(=O)C3=C1c1ccccc1N3Cc1ccccc1)c1ccccc1N2Cc1ccccc1,4.98267672
221,ADUTAW,C17 H10 N4 S4,S1C=CC=C1C1=CC=C(S1)N1N=NC(=N1)C1=CC=C(S1)C1=CC=CS1,5.4907132800000005
222,ADUTIE,C32 H21 N3,c1ccc(cc1)c1nc(nc2ccccc12)c1ccc(cc1)N1c2ccccc2c2ccccc12,5.36662936
223,ADUVIG,C18 H14 O5,COc1cc2COC3=C(C(=O)Oc4ccccc34)c2cc1OC,5.60472898
224,ADUWAZ,C32 H39 N1 O5 S2,CC1=C(C=C(S1)C=O)C1=C(CCC1)C1=C(C)SC(=C1)c1ccc(cc1)N1CCOCCOCCOCCOCC1,5.33533626
225,ADUZIL,C30 H23 Cl1 N2 O5,COC(=O)C(C1C(C(=O)c2ccccc2)C21C(=O)N(C)c1ccc(Cl)cc21)=C1C(=O)N(C)c2ccccc12,5.71166972
226,AENLAN10,C31 H44 O2 S2,CC(C)CCCC(C)C1CCC2(C)c3c4SSc4c4c(CCC(OC(C)=O)C4(C)C)c3C=CC12C,6.20718904
227,AEPHOS03,C2 H8 N1 O4 P1,[NH3+]CCOP(O)(=O)[O-],4.81831995
228,AFALAX,C23 H18 N6,CCCN1C=Nc2c1nc(nc2N1C=Cc2ccccc12)c1ccc(cc1)C#N,5.81643356
229,AFALEB,C23 H19 N5 O1,CCCN1C=Nc2c1nc(nc2N1C=Cc2ccccc12)c1ccc(C=O)cc1,5.65262102
230,AFALOI,C24 H19 N7 O1,CC1=NN(C2=NN3C=NN=C3C=C2)C(=C1C=CNC(=O)c1ccccc1)c1ccccc1,5.99902195
231,AFAMUS,C9 H10 F6 N2 O5 S2,C[N+]1=C(O)C(=C(C)N1)C[C-](S(=O)(=O)C(F)(F)F)S(=O)(=O)C(F)(F)F,6.56284185
232,AFANAZ,C15 H14 F6 N2 O5 S2,CN1[N+](=C(O)C(=C1C)C[C-](S(=O)(=O)C(F)(F)F)S(=O)(=O)C(F)(F)F)c1ccccc1,6.1467797599999985
233,AFAXIR,C20 H16 O4,COc1ccc(cc1)C1=C(OC)C(=O)C(=CC1=O)c1ccccc1,4.88063403
234,AFAXUC,C13 H11 N1 O1 S1,Nc1ccccc1C(=O)C=CC1=CC=CS1,5.55574848
235,AFAZEM,C6 H7 N1 O3 S1,[NH3+]c1ccc(cc1)S(=O)(=O)[O-],5.16091129