,ID,formula,smiles,HOMO_LUMO_gap
11198,HUDLID,C45 H40 N4 O2,CCN(CC)c1ccc2c(Oc3cc(ccc3C32N(N=Cc2ccc4ccc5cccc6ccc2c4c56)C(=O)c2ccccc32)N(CC)CC)c1,5.51520352
11199,HUDPIG,C26 H26 O9,COC(=O)C12Oc3cc(C)cc(O)c3C(=O)C1=CC=CC2OC(=O)C12CCC(C)(C(=O)O1)C2(C)C,6.195760260000001
11200,HUDTOR,C22 H16 N2,CC1=NN(c2ccccc2)c2cc3ccccc3c3cccc1c23,5.33696895
11201,HUDVOS,C12 H12 I3 N1 O4,CCOC(=O)c1c(I)c(N)c(I)c(c1I)C(=O)OCC,6.153854730000001
11202,HUDWAF,C11 H11 N3 O3,COC(C)=CC(=O)N1N=[N+]([O-])c2ccccc12,6.22378799
11203,HUDWOV,C25 H24 N2 O5,CC(C)OC(=O)C1(N(C(=O)c2ccccn2)c2cccc3cccc1c23)C(=O)OC(C)C,6.0588869899999995
11204,HUDXOT,C8 H7 N2 O3 P1,OP(=O)([O-])C1=[NH+]N=Cc2ccccc12,5.36118709
11205,HUDZAJ,C22 H19 I1 S1,CC(C)(C)Sc1ccc(cc1)C#CC1=C2C=CC=CC=C2C(=C1)I,4.68743319
11206,HUFBEQ,C16 H15 N1 O6,CCOC(=O)C(=O)C(C(=O)OCC)=C1C(=O)Nc2ccccc12,5.86976787
11207,HUFBUG,C26 H34 Br2 N2,CC(C)c1cc(Br)cc(C(C)C)c1N=CC=Nc1c(cc(Br)cc1C(C)C)C(C)C,6.337803689999999
11208,HUFCIV,C15 H12 Cl1 N1 O4,OC(=O)COc1ccccc1C=[N+]([O-])c1ccc(Cl)cc1,6.17426326
11209,HUFHIA,C21 H19 N3 O4,COc1cccc(C=Nc2cccnc2N=Cc2cccc(OC)c2O)c1O,6.00473634
11210,HUFKEZ,C34 H34 F1 N5 S1,CC(C)Cc1ccc(cc1)C(C)C1=NN(CN(c2ccccc2)c2ccccc2)C(=S)N1N=Cc1ccc(F)cc1,5.83929112
11211,HUFKID,C12 H17 N1 O4,Cc1ccc([O-])c(C=[NH+]C(CO)(CO)CO)c1,5.31792098
11212,HUFKUP,C22 H20 N2 O2,COc1ccc(cc1)C1CC(=Nc2ccccc2N1)c1ccccc1O,6.19140644
11213,HUFLIE,C16 H17 N1 O2,CCCc1ccc([NH+]=Cc2cccc(O)c2[O-])cc1,5.01614672
11214,HUFRIL,C19 H17 B1 Br1 F2 N3 O2,Oc1ccccc1C1=C2C=CC(=[N+]2[B-](F)(F)N2C(=CC=C12)Br)N1CCOCC1,4.3832099
11215,HUFSAF,C32 H24 N6,CC1(C)c2ccccc2N(c2cnc3nc(c4ccccn4)c(nc3c2)c2ccccn2)c2ccccc12,4.972608510000001
11216,HUFSEJ,C32 H24 N6,CC1(C)c2ccccc2N(c2cnc3nc(c4ccccn4)c(nc3c2)c2ccccn2)c2ccccc12,5.187306329999999
11217,HUFSIN,C30 H19 N5 O1,O1c2ccccc2N(c2ccc3nc(c4ccccn4)c(nc3c2)c2ccccn2)c2ccccc12,4.95573744
11218,HUFSOT,C29 H18 N6 O1,O1c2ccccc2N(c2cnc3nc(c4ccccn4)c(nc3c2)c2ccccn2)c2ccccc12,4.6409017200000005
11219,HUFTEI,C33 H18 F6,FC1(F)C(=C(c2ccc(cc2)C#Cc2ccccc2)C(F)(F)C1(F)F)c1ccc(cc1)C#Cc1ccccc1,5.86187656
11220,HUFTEK,C33 H30 N2 O4 S2,Cc1ccc(cc1)S(=O)(=O)C=C1CCN(C2=C1N(Cc1ccccc1)c1ccccc21)S(=O)(=O)c1ccc(C)cc1,5.71629566
11221,HUFTIM,C24 H22 N2 O2,CCOc1ccc(cc1)c1nc2ccccc2nc1c1ccc(OCC)cc1,5.95602796
11222,HUFVAH,C33 H25 Cl1 N2 O3 S1,Cc1ccc(cc1)C(=O)C1C(N2C(Sc3ccccc23)C21C(=O)Nc1ccc(C)cc21)C(=O)c1ccc(Cl)cc1,5.66840362
11223,HUFVEL,C39 H28 Cl2 N2 O3 S1,Cc1ccc(cc1)C(=O)C1C(N2C(Sc3ccccc23)C21C(=O)N(Cc1ccccc1)c1ccc(Cl)cc21)C(=O)c1ccc(Cl)cc1,5.87929186
11224,HUFVIP,C38 H25 Cl3 N2 O3 S1,Clc1ccc(cc1)C(=O)C1C(C(=O)c2ccc(Cl)cc2)C2(C3Sc4ccccc4N13)C(=O)N(Cc1ccccc1)c1ccc(Cl)cc21,5.70160151
11225,HUFVOT,C23 H13 N5,N#CC(C#N)=C1N(CC=Cc2ccccc2)C(=C(C#N)C#N)c2ccccc12,4.78267303
11226,HUFVOV,C40 H31 Cl1 N2 O4 S1,COc1ccc(cc1)C(=O)C1C(C(=O)c2ccc(C)cc2)C2(C3Sc4ccccc4N13)C(=O)N(Cc1ccccc1)c1ccc(Cl)cc21,5.81588933
11227,HUFWEK,C20 H15 N1 O3,COc1ccc(cc1)C=CC1=C(C#N)C(=O)Oc2ccc(C)cc12,5.4792844899999995
11228,HUFWEM,C35 H26 Cl2 N2 O3 S1,Cc1ccc(cc1)C(=O)C1C(N2C=CSC2C21C(=O)N(Cc1ccccc1)c1ccc(Cl)cc21)C(=O)c1ccc(Cl)cc1,5.6292192199999995
11229,HUFYEP,C20 H15 N3 O3 S1,COc1ccc(cc1)C=NNC1=NC(=CS1)C1=Cc2ccccc2OC1=O,5.430304
11230,HUFZAJ,C13 H19 N1 O2,CCCCCCOC1=CC=C(N)C(=O)C=C1,5.7073159
11231,HUFZOX,C15 H15 Cl1 N2 O2,CN1CCN(CC1)C1=C(Cl)C(=O)c2ccccc2C1=O,5.206354300000001
11232,HUGBIU,C21 H19 N1 O4,CCOC(=O)C(=Cc1c2ccccc2nc2ccccc12)C(=O)OCC,5.5010536
11233,HUGCIW,C18 H19 N1 O1,CN(C)c1ccc(C=CC(=O)c2ccc(C)cc2)cc1,5.51493141
11234,HUGFOH,C24 H20 Cl1 N1 O3,Clc1cccc(c1)C(=O)CC1NC(COC1=O)(c1ccccc1)c1ccccc1,6.716314059999999
11235,HUGHAS,C33 H37 N1 O2 S1,COc1ccc(cc1)N=Cc1ccc2ccccc2c1S(=O)c1c(cc(cc1C(C)C)C(C)C)C(C)C,5.693710210000001
11236,HUGHID,C25 H17 Cl1 O3,COc1ccc2C(=C(C(C3=COc4ccccc4C3=O)c2c1)c1ccccc1)Cl,5.95058568
11237,HUGHOG,C14 H10 N2 O1 S1,O=S1N=C(c2ccccc2)C(=N1)c1ccccc1,6.49073168
11238,HUGKIG,C22 H15 N1 O2,NC1=C(C(=O)c2ccccc2)c2ccccc2C(=O)c2ccccc12,5.8308555900000005
11239,HUGLAY,C36 H20 Br2,Brc1cc2ccccc2c2c(cc3ccccc3c12)c1cc2ccccc2c2c(Br)cc3ccccc3c12,5.697247689999999
11240,HUGLAZ,C37 H24 O1,COc1ccc(cc1)C1=C2C(=Cc3ccc4c5ccccc5c4c23)C(=C1c1ccccc1)c1ccccc1,4.53641
11241,HUGLIF,C24 H25 Br1,CC(C)(C)c1cc2ccc3cc(c(Br)c4ccc(c1)c2c34)C(C)(C)C,5.59710979
11242,HUGQEG,C16 H25 N3 O1 S1,CCCCCCCCOc1ccc(cc1)C=NNC(N)=S,5.92745601
11243,HUGREH,C20 H21 N1 O6,COC1Oc2ccccc2C(=O)C1=CNc1cc(OC)c(OC)c(OC)c1,5.8545295
11244,HUGRUX,C23 H18 Cl1 N3 O1,CC1=NN(C(=O)C1=C(Nc1ccc(Cl)cc1)c1ccccc1)c1ccccc1,5.72092159
11245,HUGSUY,C33 H59 P3,CC(C)(C)CC(=C1PC2=C(C(P=C(P12)C(=CC(C)(C)C)C(C)(C)C)C(C)(C)C)C(C)(C)C)C(C)(C)C,5.40526953
11246,HUGXEP,C31 H23 N1 O3,COc1ccc(cc1)C#Cc1ccc(cc1)N=Cc1cc(ccc1O)C#Cc1ccc(OC)cc1,5.5756128
11247,HUGZOZ,C36 H22 O2,C1Oc2cc3c(ccc4ccc5ccc6cc7c(OCc8ccccc78)cc6c5c34)cc2c2ccccc12,5.6096270299999995
11248,HUHBOC,C21 H25 N3 O5,COC(=O)C1=C(C(=O)OC)C(=NC(C)(C)C)N2N(CCC2=O)C1c1ccccc1,6.651006740000001
11249,HUHCUK,C23 H15 Br1 O4,COc1c(Br)c2C=C3C(=O)c4ccccc4C(=O)C3(C)Oc2c2ccccc12,5.20744276
11250,HUHDOE,C20 H14 F2 N2,Fc1cc(C=Cc2ccncc2)c(F)cc1C=Cc1ccncc1,5.42458961
11251,HUHFAT,C10 H7 Br1 O1 S1,CSC1=Cc2cc(Br)ccc2C1=O,5.357921720000001
11252,HUHFUM,C20 H15 F1 N2,Fc1cc(C=Cc2ccncc2)ccc1C=Cc1ccncc1,5.758201189999999
11253,HUHHEX,C28 H32 N2 S8,CCCCCSC1=C2SCc3ccnc(c3)c3cc(CSC4=C(SCCCCC)SC(=C(S1)S2)S4)ccn3,5.2297560899999995
11254,HUHMEE,C24 H19 N3 O1,Cc1cccc(C)c1N=C1C(Nc2ccccc12)=C1Nc2ccccc2C1=O,4.35273315
11255,HUHNOP,C16 H23 N3,CC(C)(C)NC1=Nc2ccccc2C1=NC(C)(C)C,5.6790160599999995
11256,HUHPAC,C19 H25 N5 S2,CC(C)(C)N1C=CN(C1=S)c1cccc(n1)N1C=CN(C1=S)C(C)(C)C,6.04174383
11257,HUHQAC,C28 H26 Cl2 N4 O4 S2,CCOC(=O)C(SC(C#N)=C(SC(=C(C)Nc1ccc(Cl)cc1)C(=O)OCC)C#N)=C(C)Nc1ccc(Cl)cc1,5.726091759999999
11258,HUHRUX,C20 H20 N2,Cc1ccc(cc1)C=CC1=CC(CC(C)(C)C1)=C(C#N)C#N,5.311934470000001
11259,HUHSUZ,C23 H20 N2,Cc1ccc(NC2=CC(=Nc3ccc(C)cc3)c3ccccc23)cc1,5.600919379999999
11260,HUHTEK,C28 H23 N3,Cc1ccc(NC2=C(c3ccccn3)C(=Nc3ccc(C)cc3)c3ccccc23)cc1,5.21506194
11261,HUHVEO,C14 H8 Br2,Brc1cccc2cc3cccc(Br)c3cc12,5.444726040000001
11262,HUHWOW,C18 H18 O4,COc1ccc(OC)c2cc3c(OC)ccc(OC)c3cc12,5.59710979
11263,HUHXAM,C32 H18 I2,Ic1cc2c3cccc4c(c(I)cc(c5cccc(c1c1ccccc1)c25)c34)c1ccccc1,4.87491963
11264,HUHXEQ,C36 H20 I2,Ic1cc2ccc3cc(I)c(c4cccc5ccccc45)c4ccc(c1c1cccc5ccccc15)c2c34,5.59520499
11265,HUHXIU,C28 H16 I2,Ic1cc2ccc3cc(I)c(c4ccccc4)c4ccc(c1c1ccccc1)c2c34,5.59520499
11266,HUHXOA,C30 H20 I2 O2,COc1ccc(cc1)c1c(I)cc2ccc3cc(I)c(c4ccc(OC)cc4)c4ccc1c2c34,5.3949292
11267,HUHXOY,C18 H14 F2 N4,CC1=CC=CN2C1=Nc1c(NCc3ccccc3)nc(F)c(F)c21,5.75167046
11268,HUHXUE,C17 H11 Cl1 F1 N3 S1,CC1=CC=CN2C1=Nc1c(Sc3ccccc3)nc(F)c(Cl)c21,5.662417120000001
11269,HUHYOA,C25 H17 Br1 O1,CC1=C(c2ccccc2)C2(C(=O)C(=Cc3ccccc23)Br)c2ccccc12,5.59438866
11270,HUHYUE,C21 H22 N2 O2,COc1ccc(C=CC2=CC(CC(C)(C)C2)=C(C#N)C#N)c(OC)c1,4.877368649999999
11271,HUJHAX01,C27 H36 B1 F2 N2 O3 P1,CCOP(=O)(OCC)c1ccc(cc1)C1=C2[N+](=C(C)C(=C2C)CC)[B-](F)(F)N2C(=C(CC)C(=C12)C)C,4.6267518
11272,HUJLED01,C18 H14 N4,c1ccc(C=Nc2ccc(cc2)N=Cc2ccccn2)nc1,5.767725179999999
11273,HUJLOP,C26 H32 B2 N4 O4,CN1C(=C(C)[N+](=C1[B-]1(Oc2ccccc2O1)C1=[N+](C)C(=C(C)N(C)[B-]21Oc1ccccc1O2)C)C)C,6.0784792
11274,HUJNOS,C19 H22 N4 O1 S1,CCN(CC)c1ccc(C=NNC2=Nc3ccccc3S2)c(OC)c1,5.95902121
11275,HUJPEK,C16 H18 N2 O4 S1,CC1(C)SC2C([NH+]=C(Cc3ccccc3)N2C1C(O)=O)C(=O)[O-],5.27030106
11276,HUJPUA,C44 H44 N4 O3,CCN(CC)c1ccc2c(OC3=C(CCCC3=CC=C3N(C)c4ccccc4C3(C)C)C32N(N=Cc2ccccc2O)C(=O)c2ccccc32)c1,5.28581154
11277,HUJTAJ,C22 H18 N2,N1C=CC=C1C(c1ccccc1)=C(C1=CC=CN1)c1ccccc1,5.71275818
11278,HUJTEN,C21 H14 Br1 F2 N1,Fc1ccc(cc1)C(=NC=Cc1ccc(Br)cc1)c1ccc(F)cc1,5.73044558
11279,HUJTIR,C22 H17 F2 N1,Cc1ccc(C=CN=C(c2ccc(F)cc2)c2ccc(F)cc2)cc1,5.68418622
11280,HUJWEP,C29 H21 N5 O2,CN(C1=Nc2ccccc2N(c2ccccc2)C1=O)C1=Nc2ccccc2N(c2ccccc2)C1=O,5.87303323
11281,HUJWIT,C36 H28 N6 O2,CN(C)c1ccc(cc1)N(C1=Nc2ccccc2N(c2ccccc2)C1=O)C1=Nc2ccccc2N(c2ccccc2)C1=O,5.33533627
11282,HUKBUL,C20 H36 I2 P6,CC(C)(C)C12P(I)P3C4(P(I)P1C1(P2C3(P41)C(C)(C)C)C(C)(C)C)C(C)(C)C,5.14322389
11284,HUKFOJ,C14 H12 O6 S3,CCOC(=O)C1=CC2=C(S1)C1=C(C=C(S1)C(=O)OCC)S2(=O)=O,5.82378063
11285,HUKHOM,C20 H14 N2 S1,CN1c2nc3ccccc3cc2Sc2ccc3ccccc3c12,5.986504710000002
11286,HUKKEE,C21 H23 F5 O6 S2,Cc1ccc(cc1)S(=O)(=O)OCC(F)C(F)C(F)C(F)C(F)COS(=O)(=O)c1ccc(C)cc1,6.22623701
11287,HUKLAD,C24 H21 O2 P1,COc1ccc(cc1)C1=CC=C(P1c1ccccc1)c1ccc(OC)cc1,5.3609149700000005
11288,HUKLUV,C22 H18 Br2 N2 O5,CCOC(=O)C1=C(c2cc(Br)ccc2N1)C1(Nc2ccc(Br)cc2C1=O)C(=O)OCC,5.882557220000001
11289,HUKNIN,C22 H24 N6,CN(CCN(C)Cc1cnc2ccccc2n1)Cc1cnc2ccccc2n1,6.73019187
11290,HUKPOT,C14 H20 N6,CCC1=NC(=C(N1)C=NN=CC1=C(C)N=C(CC)N1)C,5.98704893
11291,HUKQEL,C13 H16 N2 O3 S2,CSCCC(NC(=S)NC(=O)c1ccccc1)C(O)=O,6.08745895
11292,HUKQIO,C21 H20 N4,C1CCC2=C3N(C1)CCCN3c1nc3ccc4ccccc4c3nc21,5.51765255
11293,HUKQIP,C11 H12 N2 O3 S1,CC(NC(=S)NC(=O)c1ccccc1)C(O)=O,6.26270027
11294,HUKQOV,C30 H25 O3 P1,COc1ccc2C=C(C(=O)Oc2c1)c1ccc(cc1)P(c1ccc(C)cc1)c1ccc(C)cc1,5.8286786799999994
11295,HUKTEM,C8 H5 I1 S6,IC1=CSC(S1)=C1SC2=C(SCCS2)S1,5.63166825
11296,HUKWAN,C20 H14 N2 S1,CN1c2ccc3ccccc3c2Sc2cc3ccccc3nc12,5.69561501
11297,HULBEW,C14 H19 Br1 N2 O2,COC(OC)C1=NC(=CC2=CC(=CN2)Br)C(C)(C)C1,6.02187951
11298,HULBOG,C19 H22 O3,COc1cc2CCC(=O)C=C(C#CC(C)(C)C)c2cc1OC,5.910040719999999
11299,HULDID,C15 H9 Br1 O1,Brc1ccc2C(=O)C(=Cc2c1)c1ccccc1,5.487175799999999
11300,HULDOK,C46 H40 F3 N3 O3,Cc1ccc(cc1)C=C1CN(CC2(C(C(Cc3ccccc3)NC32C(=O)Nc2ccc(OC(F)(F)F)cc32)c2ccc(C)cc2)C1=O)C=Cc1ccccc1,5.16118341
11301,HULFUP,C19 H16 F3 N3 O2 S1,CN1N(C(=O)C(=C1C)NC(=CC(=O)C(F)(F)F)C1=CC=CS1)c1ccccc1,5.876842829999999
11303,HULKAA,C18 H13 N1 O1,O=C1C(Cc2ccccc12)=CC1=CNc2ccccc12,5.78160298
11304,HULPAI,C32 H31 B1 Cl1 F2 O3 P1,CC1(C)O[B-]2(OC(c3ccc(Cl)cc3)C(F)(F)[P+](c3ccccc3)(c3ccccc3)c3ccccc23)OC1(C)C,6.716586169999999
11305,HULPEM,C25 H26 B1 F2 O2 P1,CC1(C)O[B-]2(OC1(C)C)c1ccccc1[P+](c1ccccc1)(c1ccccc1)C2(F)F,6.26977523
11306,HULVIT,C14 H10 S5,C1CSC2=C(SC(=C2S1)C1=CC=CS1)C1=CC=CS1,5.77180688
11307,HULVOZ,C15 H12 S5,C1CSC2=C(SC(=C2SC1)C1=CC=CS1)C1=CC=CS1,5.60690589
11308,HULWIU,C20 H18 N4 O1,N#Cc1ccc(cc1)N=Nc1ccc(OCCCN2C=CC=C2)cc1,5.24472235
11309,HUMCAW,C17 H13 N1 O3,COc1ccc(cc1)C(=Cc1ccc(cc1)C(O)=O)C#N,5.505407419999998
11310,HUMFIG,C38 H36 N6,Cc1ccc(CN(Cc2ccc(C)cc2)c2nc(C#N)c(nc2C#N)N(Cc2ccc(C)cc2)Cc2ccc(C)cc2)cc1,5.60010304
11311,HUMFUR,C26 H16 N2 S4,S1C=CC(=C1C1=CC=C(S1)C1=CC=C(S1)C1=C(C=CS1)c1ccncc1)c1ccncc1,5.207442759999999
11312,HUMFUS,C34 H28 N6,N#Cc1nc(N(Cc2ccccc2)Cc2ccccc2)c(nc1N(Cc1ccccc1)Cc1ccccc1)C#N,5.410439689999999
11313,HUMGAZ,C50 H36 N6,N#Cc1nc(N(Cc2ccc3ccccc3c2)Cc2ccc3ccccc3c2)c(nc1N(Cc1ccc2ccccc2c1)Cc1ccc2ccccc2c1)C#N,5.1902995800000005
11314,HUMHIG,C9 H11 N3 O1 S1,COc1ccccc1C=NNC(N)=S,5.79901826
11315,HUMJEH,C34 H40 O12,CC1CCCC2(CC3=C(CO2)C(=O)C(C)(OC(C)=O)C(=O)C3=C2C(=O)C(C)(OC(C)=O)C(=O)C3=C2CC2(CCCC(C)O2)OC3)O1,6.11140496
11316,HUMKUV,C23 H19 N3 O2,CC1=NN(C(=O)C1=C(Nc1ccccc1O)c1ccccc1)c1ccccc1,5.75711273
11317,HUMKUY,C23 H13 N5 O1 S3,O=C(C1=CC=CS1)C1=NN(c2ccccc2)C2=NC(SC2=C1)=NC1=Nc2ccccc2S1,5.02675916
11318,HUMLUZ,C24 H21 N5 O1,CN(C)c1ccc(cc1)C=C1N=C(N(N=Cc2ccccn2)C1=O)c1ccccc1,4.8898858899999995
11319,HUMNUY,C19 H17 N1 O3 S1,COC(=O)C1CC2CSCN2C21C(=O)c1cccc3cccc2c13,6.18596416
11320,HUMQOV,C18 H15 N1 O5,COC(=O)C1=C2N(C(=CC=C2O)OC)C(=C1)C(=O)c1ccccc1,5.94976934
11321,HUMSEN,C10 H9 Br1 N2 O3,CC(=O)C(=NNc1ccc(Br)cc1)C(O)=O,6.0904522
11322,HUMSOX,C24 H23 Cl1 N4,CN(C)c1ccc(cc1)c1cc(nc(N2CCCC2)c1C#N)c1ccc(Cl)cc1,5.6188789
11323,HUMSUG,C34 H16,c1ccc2c(c1)c1cccc3c4ccc5c6cccc7c8ccccc8c8c2c(c13)c4c5c8c67,5.02485436
11324,HUMTAN,C34 H16,c1ccc2c(c1)c1cccc3c4cc5c6ccccc6c6cccc7c8cc2c(c13)c4c8c5c67,5.20526584
11325,HUMTIT,C17 H14 O2 S6,CSC1=C(SC)SC(S1)=C1SC2=C(S1)C(=O)C1C3CC(C=C3)C1C2=O,4.496137150000002
11326,HUMTOZ,C16 H10 N2 O1 S3,O=C1C2C3CCC(C=C3)C2C(C2=C1SC(=S)S2)=C(C#N)C#N,4.84117751
11327,HUMTUF,C19 H10 N4 O1 S2,O=C1SC2=C(S1)C(C1C3CCC(C=C3)C1C2=C(C#N)C#N)=C(C#N)C#N,5.094787630000001
11329,HUMVIV,C16 H11 N3 O2 S1,N=C1N2C=CC=CC2=C(C=C1S(=O)(=O)c1ccccc1)C#N,5.33696895
11330,HUMVOB,C17 H14 N2 O4 S1,COC(=O)C1=C2C=CC=CN2C(=N)C(=C1)S(=O)(=O)c1ccccc1,5.52445539
11331,HUMVUH,C19 H18 N2 O4 S2,COC(=O)C(=C1NC=CC=C1)C(SC)=C(C#N)S(=O)(=O)c1ccc(C)cc1,5.96473561
11332,HUMYIY,C16 H14 Cl1 N3 S1,CN(C)c1ccc(cc1)C=NC1=Nc2ccc(Cl)cc2S1,5.628130769999999
11333,HUMYUL,C13 H15 N1 O3,O=C1OC23CC(ON4CCCCC24)C=CC3=C1,6.64937405
11335,HUMZUK,C32 H28 S5,CCCCC1=CC=C(S1)C#CC1=CC=C(S1)C1=CC=C(S1)C1=CC=C(S1)C#CC1=CC=C(CCCC)S1,4.95927492
11336,HUNDEZ,C30 H23 Cl1 N2 O1,Clc1ccc(cc1)C1C(=NN(c2ccccc2)C21CCc1ccccc1C2=O)c1ccccc1,5.698064030000001
11337,HUNGEF,C14 H6 N2 O1 S1,O=C1CC(C2=C1c1ccccc1S2)=C(C#N)C#N,5.48744791
11338,HUNGIN,C30 H36 O4,CC(C)=CCc1c(C)cc(O)c2c(O)c3C(=O)C=C(O)C(CC=C(C)C)(CC=C(C)C)c3cc12,5.9407895900000005
11339,HUNLEJ,C31 H20 Cl1 N1 O3 S1,Clc1ccc(cc1)C1C(N2C(Sc3ccccc23)C21C(=O)c1ccccc1C2=O)C(=O)c1ccccc1,5.10893754
11340,HUNLIM,C19 H18 O5,CCOC(=O)C1=C(Oc2cc(OC)c(OC)cc12)c1ccccc1,6.00555268
11341,HUNLIN,C31 H20 Br1 N1 O3 S1,Brc1ccc(cc1)C1C(N2C(Sc3ccccc23)C21C(=O)c1ccccc1C2=O)C(=O)c1ccccc1,5.14376811
11342,HUNLOU,C30 H52 N12,CN(C)C(=Nc1ccc2c(ccc(N=C(N(C)C)N(C)C)c2N=C(N(C)C)N(C)C)c1N=C(N(C)C)N(C)C)N(C)C,5.66649882
11343,HUNMIN,C29 H22 O2,CC1=CC2=C(c3ccccc3)C(=O)C(c3ccccc3)(c3ccccc3)C2=C(C)C1=O,5.3500304100000005
11344,HUNQAJ,C15 H11 N3 O2,COC1=NC=C2N3C(=NC=C13)CC(=O)c1ccccc21,5.88391779
11345,HUNVAN,C46 H35 N3,Cc1ccc(cc1)C1=C2NC(=C(c3ccc(C)cc3)C3=NC(=C(C=CC=CC(=C4C=CC1=N4)c1ccccc1)c1ccccc1)C=C3)C=C2,4.0215705999999996
11346,HUNZOG,C20 H17 N1 O5,CN(C)c1ccc2c(OC(=O)C(=C2OC(C)=O)C(=O)c2ccccc2)c1,5.722282160000001
11347,HUPDAA,C19 H12 Cl1 N1 O1,Clc1ccc(cc1)C(=O)N1C=Cc2cc3ccccc3cc12,5.9579327499999994
11348,HUPJOU,C22 H20 N2 O4 S2,O=C(C1=CC=CS1)C12CCOS(=O)(=O)NC1c1ccccc1N2Cc1ccccc1,5.63030768
11349,HUPMIR,C28 H24 N4 O3,CCCCN1C(=O)C2=C(NC(=O)C2=C1c1ccc(OC)cc1)C1=Cc2ccccc2N2C=CN=C12,4.23681266
11350,HUPPOZ,C19 H12 Cl1 F3 O3,OC(=CC(=O)c1ccc(cc1)C(F)(F)F)c1cc(Cl)ccc1OCC#C,6.13725579
11351,HUPRES,C20 H18 F6 N2 S1,CC1(C)C(CSC(F)(F)F)N(N=C1c1ccc(cc1)C(F)(F)F)c1ccccc1,5.831399820000001
11352,HUPSES,C15 H13 Br1 F1 N3 O1 S1,NC(=S)NN=C(COc1ccc(F)cc1)c1ccc(Br)cc1,5.8708563300000005
11353,HUPSIW,C15 H13 Br1 Cl1 N3 O1 S1,NC(=S)NN=C(COc1ccc(Br)cc1)c1ccc(Cl)cc1,5.7562964
11354,HUPVIY,C18 H20 F4 N2 O2,CCCCNC1=C(F)C(=O)c2c(F)c(F)c(F)c(NCCCC)c2C1=O,5.1998235699999995
11355,HUPVOG,C19 H17 N1 O3,COc1ccc(cc1OC)C(=O)C=CC1=CNc2ccccc12,5.890720630000001
11356,HUPVUM,C18 H15 N1 O2,COc1cccc(c1)C(=O)C=CC1=CNc2ccccc12,5.87575438
11357,HUPWEX,C16 H12 N2 O3,O=CC1=CN(N2C(=O)c3ccccc3C2=O)C(=C1)C1CC1,5.67439012
11358,HUPWIA,C20 H20 N4,CC1=CC(=C(N1)c1nc2ccccc2nc1C1=C(C)C=C(C)N1)C,5.30676431
11359,HUQBEA,C34 H51 F6 N3 P2 S1,CC(C)N(C(C)C)P1(=S)C(c2ccccc2C(F)(F)F)P(=C1c1ccccc1C(F)(F)F)(N(C(C)C)C(C)C)N(C(C)C)C(C)C,6.0305871600000005
11360,HUQDUT,C20 H18 N8,C(Nc1ccccc1NCN1N=Nc2ccccc12)N1N=Nc2ccccc12,6.23684945
11361,HUQHOT,C14 H8 N2 O2 S1,O=C1NC2=C(SC=C2)C1=C1C(=O)Nc2ccccc12,4.60824805
11362,HUQHUZ,C13 H7 N3 O2 S1,O=C1NC2=C(SC=C2)C1=C1C(=O)Nc2ncccc12,4.776686530000001
11363,HUQJAH,C20 H10 N2 O4 S2,O=C1NC2=C(SC(=C2)C2=CC=CO2)C1=C1C(=O)NC2=C1SC(=C2)C1=CC=CO1,3.84524082
11364,HUQJEL,C30 H18 N6 O2 S2,O=C1NC2=C(SC(=C2)C2=CC=NN2c2ccccc2)C1=C1C(=O)NC2=C1SC(=C2)C1=CC=NN1c1ccccc1,4.00796491
11365,HUQJIP,C20 H10 N2 O2 S4,O=C1NC2=C(SC(=C2)C2=CC=CS2)C1=C1C(=O)NC2=C1SC(=C2)C1=CC=CS1,3.6865984399999996
11366,HUQLIR,C43 H31 Cl2 N3 O4,CN1c2ccccc2C2=C1C1(C(C3C2C(=O)N(Cc2ccccc2)C3=O)C(=O)c2ccc(Cl)cc2)C(=O)N(Cc2ccccc2)c2ccc(Cl)cc12,5.8798360800000005
11367,HUQLOX,C43 H31 Cl2 N3 O4,CN1c2ccccc2C2=C1C1(C(C3C2C(=O)N(Cc2ccccc2)C3=O)C(=O)c2ccc(Cl)cc2)C(=O)N(Cc2ccccc2)c2ccc(Cl)cc12,6.1685488799999995
11368,HUQLUD,C43 H30 Cl1 N3 O4,CN1c2ccccc2C2=C1C1(C(C(=O)c3ccc(Cl)cc3)C3=C2C(=O)N(C3=O)c2ccccc2)C(=O)N(Cc2ccccc2)c2ccc(C)cc12,5.28608366
11369,HUQMAK,C44 H33 N3 O5,COc1ccc(cc1)C(=O)C1C2=C(C(=O)N(C2=O)c2ccccc2)C2=C(N(C)c3ccccc23)C21C(=O)N(Cc1ccccc1)c1ccc(C)cc21,5.307036419999999
11370,HUQMEO,C43 H31 N3 O4,CN1c2ccccc2C2=C1C1(C(C(=O)c3ccc(C)cc3)C3=C2C(=O)N(c2ccccc2)C3=O)C(=O)N(Cc2ccccc2)c2ccccc12,5.298873009999999
11371,HUQMIS,C37 H25 Cl2 N3 O4,CN1C(=O)C2=C(C1=O)C1=C(N(C)c3ccccc13)C1(C2C(=O)c2ccc(Cl)cc2)C(=O)N(Cc2ccccc2)c2ccc(Cl)cc12,5.277648129999999
11372,HUQMOY,C44 H33 N3 O4,CN1c2ccccc2C2=C1C1(C(C(=O)c3ccc(C)cc3)C3=C2C(=O)N(Cc2ccccc2)C3=O)C(=O)N(Cc2ccccc2)c2ccccc12,5.28064139
11373,HUQMUE,C42 H29 N3 O4,Cc1ccc(cc1)C(=O)C1C2=C(C(=O)N(C2=O)c2ccccc2)C2=C(Nc3ccccc23)C21C(=O)N(Cc1ccccc1)c1ccccc21,5.3772418
11374,HUQNAL,C39 H30 N2 O4,CN1c2ccccc2C2=C1C1(C(c3ccc(cc3)C(C)(C)C)C3=C2C(=O)N(c2ccccc2)C3=O)C(=O)c2ccccc2C1=O,4.94485289
11375,HUQNOZ,C24 H14,c1ccc2c(c1)cc1c3cccc4cccc(c5cccc2c15)c34,4.90022622
11376,HUQNUF,C22 H14,C1Cc2ccc3c4cccc5cccc(c6ccc1c2c36)c45,4.76552986
11377,HUQPAN,C28 H16,C1Cc2ccc3c4cc5cccc6ccc7ccc(c8ccc1c2c38)c4c7c56,4.42511543
11378,HUQPER,C19 H11 N1,c1cc2cccc3c4ccnc5cccc(c(c1)c23)c45,4.9105665499999995
11379,HUQPIU,C23 H16 O2 S1,O=C(OCCC1=CSC=C1)c1ccc2ccc3cccc4ccc1c2c34,5.7152072
11380,HUQPOA,C20 H19 N1 O3,CN1CC(=Cc2cccc(O)c2)C(=O)C(C1)=Cc1cccc(O)c1,6.107051139999999
11381,HUQPUG,C20 H17 Cl2 N1 O1,CN1CC(=Cc2ccccc2Cl)C(=O)C(C1)=Cc1ccccc1Cl,6.302701000000001
11382,HUQQES,C30 H18 O4,O=C1C(Oc2ccccc12)=C(c1ccccc1)C(=C1Oc2ccccc2C1=O)c1ccccc1,5.48608734
11383,HUQSET,C33 H24 N2 S1,S1C(=NC(=C1N(c1ccccc1)c1ccccc1)c1ccccc1)c1ccc(cc1)c1ccccc1,5.814800869999999
11384,HUQSIX,C28 H21 Cl1 N2 O1 S1,COc1ccccc1C1=C(SC(=N1)c1ccc(Cl)cc1)N(c1ccccc1)c1ccccc1,5.82568543
11385,HUQSOD,C27 H21 N3 S1,C(N(c1ccccc1)C1=C(N=C(S1)c1ccccn1)c1ccccc1)c1ccccc1,5.90024462
11386,HUQSUJ,C31 H30 N4 S1,CN(C)c1ccc(cc1)N(c1ccc(cc1)N(C)C)C1=C(N=C(S1)c1ccccc1)c1ccccc1,5.28254618
11387,HUQTAQ,C29 H22 N2 S1,S1C(=NC(=C1N(c1ccccc1)c1ccccc1)C=Cc1ccccc1)c1ccccc1,5.62323272
11388,HUQYOK,C27 H23 Cl2 N3 O2,CC(C)(C)NC1=C(Nc2ccc(Cl)cc2)C2=C(N1c1ccc(Cl)cc1)c1ccccc1OC2=O,5.79303176
11389,HURBOL,C11 H12 Cl1 N3 O1,CC(N)=C(N=Nc1ccc(Cl)cc1)C(C)=O,5.76962997
11391,HURJEM,C18 H14 O4,CC(=O)Oc1c2ccccc2c(OC(C)=O)c2ccccc12,5.42758286
11394,HURLUD,C9 H8 O2 S4,CCOC(=O)C1=CSC(S1)=C1SC=CS1,5.29805667
11395,HURMAK,C30 H28 O8 S4,CCOC(=O)c1ccc(cc1)C1=C(SC(S1)=C1SC(=C(S1)C(=O)OCC)C(=O)OCC)c1ccc(cc1)C(=O)OCC,4.546206100000001
11396,HURNAK,C29 H23 N3 O4,COc1ccc(cc1)C1=CN(C(=O)C=C1)c1cccc(n1)N1C=C(C=CC1=O)c1ccc(OC)cc1,5.8594275399999995
11397,HURNOZ,C25 H24 N4 O4,CN(CC(=O)NC(c1ccccc1)c1ccccc1)C(=O)N=NC(=O)OCc1ccccc1,7.32258371
11398,HURQAO,C23 H25 N1 S2,CC(C)N(C(C)C)C(=S)C1=C(SC(=C1)c1ccccc1)c1ccccc1,5.89833982
11399,HURQEQ,C32 H22 S5,S1C(SC(=C1SC1=C(SC(S1)=Cc1ccccc1)c1ccccc1)c1ccccc1)=Cc1ccccc1,5.66459403
11400,HURSAO,C11 H9 F3 N1 P1 S1,CP(C)(=S)c1c(F)c(F)c2cccnc2c1F,5.74894932
11401,HURSES,C12 H9 F5 N1 P1 S1,CP(C)(=S)c1c(F)c2ncccc2c(F)c1C(F)(F)F,5.46350189
11402,HURSIW,C11 H10 F2 N1 P1 S1,CP(C)(=S)c1cc(F)c2cccnc2c1F,5.97126633
11403,HURWAU,C19 H16 O5,CC1=CC(=O)C2c3cc4cccc(O)c4c(O)c3C(=O)CC2(O)C1,5.898884059999999
11404,HURWEZ,C19 H12 Cl3 N1 O5 S1,COC(=O)C(=Cc1ccc(Cl)c(Cl)c1)S(=O)(=O)c1cc[n+]([O-])c2cc(Cl)ccc12,5.69643134
11405,HURXIB,C19 H18 Cl1 N3 O1,CN(C)C=C1N=C(c2ccccc2)c2cc(Cl)ccc2N(C)C1=O,5.39111961
11406,HURXID,C29 H18,Cc1cc(C)c2c(Cc3c4ccc5ccc6ccc7ccc(c23)c2c7c6c5c42)c1,5.634389390000001
11407,HURXIE,C40 H42 P2 S2,CC(C)P(C(=S)SP(c1ccccc1)c1ccccc1)c1c(cccc1c1c(C)cc(C)cc1C)c1c(C)cc(C)cc1C,5.65588638
11408,HURXOH,C8 H4 N2 O2 S5,C1COC2=C(O1)SC(S2)=C1SC2=NSN=C2S1,5.4814614
11409,HURXOK,C36 H50 P2 S2,CC(C)P(C(=S)SP(C(C)(C)C)C(C)(C)C)c1c(cccc1c1c(C)cc(C)cc1C)c1c(C)cc(C)cc1C,5.50567954
11410,HURXUQ,C38 H54 N2 P2 S2,CC(C)P(C(=S)SP1N(CCN1C(C)(C)C)C(C)(C)C)c1c(cccc1c1c(C)cc(C)cc1C)c1c(C)cc(C)cc1C,5.61262028
11411,HURYAX,C34 H46 P2 S2,CC(C)P(C(=S)P(=S)(C(C)C)C(C)C)c1c(cccc1c1c(C)cc(C)cc1C)c1c(C)cc(C)cc1C,5.02512648
11412,HURYEY,C12 H10 F3 N1 O2,CCNc1ccc2c(OC(=O)C=C2C(F)(F)F)c1,5.832488270000001
11413,HURZEC,C29 H27 Cl1 N4 O4,CC1(C)OC2(CC[N+]([N-]2)=C2C(=O)N(Cc3ccccc3)c3ccc(Cl)cc23)N(OCc2ccccc2)C1=O,5.32880553
11414,HURZOK,C17 H15 N1 O3,COC(=O)c1c(N)c2ccccc2c2cc(OC)ccc12,5.7663646
11415,HUSBAY,C22 H18 Br2 N2 O2 S1,Cc1ccc(NCC2=C(Br)c3ccccc3N2S(=O)(=O)c2ccccc2)c(Br)c1,5.99276333