,ID,formula,smiles,HOMO_LUMO_gap
4684,DEFLEG,C22 H18 N6,Cc1ccc(cc1)N=C1N2C=CN=C2C2=NC=CN2C1=Nc1ccc(C)cc1,5.62568174
4685,DEFMOR,C22 H22 O2 S3,CC1(C)COC(OC1)C1=C(SC(=C1)C=CC1=CC=CS1)C=CC1=CC=CS1,4.96172395
4686,DEFQEN,C29 H33 N3 O2,C1CNCCNCc2c(OCCOc3ccc4ccccc4c3CNC1)ccc1ccccc21,6.46406452
4687,DEFQIP01,C13 H12 N2 O3,CCOC(=O)C1=CN=C(C(=O)N1)c1ccccc1,5.6915333
4689,DEFTUG,C28 H14,C1c2ccc3Cc4cc5c6ccccc6c6cc7ccc1c1c2c3c4c(c71)c56,5.11574039
4690,DEFVAO,C26 H14 S1,C1c2ccc3Cc4ccc5c(cc6ccc1c1c2c3c4c5c61)C1=CC=CS1,5.578061819999999
4691,DEFWIX,C38 H29 N1 O2,O=C1N(C2CCCCC2)C(=O)c2ccc(c3ccc(cc3)C=C3c4ccccc4c4ccccc34)c3cccc1c23,5.53479572
4692,DEFYOC,C24 H17 Br1 O4,CC(=O)Oc1ccc(Br)cc1c1c2ccccc2c(OC(C)=O)c2ccccc12,5.44935197
4693,DEFYUI,C6 H9 N1 S2,[NH2+]=C1CCC[C-]1C(S)=S,5.61642988
4694,DEFZIY,C18 H18 O4,COc1cc(C=CC(=O)c2ccccc2)cc(OC)c1OC,5.83248827
4695,DEGDUP,C28 H22 N4 O2,Cc1cc(NC(=O)c2ccc3ccccc3n2)c(NC(=O)c2ccc3ccccc3n2)cc1C,5.644729720000001
4696,DEGVOC,C15 H14 Cl1 N1 O1,Clc1ccc(NCCC(=O)c2ccccc2)cc1,5.94405495
4697,DEGYOD,C27 H27 N1 O5,COC(=O)C1=C(C(=O)OC)C(N2CCOCC2)(c2ccccc2)C1=C(C=C)c1ccccc1,5.973443250000001
4698,DEHCIF,C13 H11 N3 O1,NN1C(=O)C2=CC=CN2C=C1c1ccccc1,6.287190509999999
4699,DEHDUS,C25 H25 N3 O2 S1,Cc1ccc(cc1)S(=O)(=O)NC1=Nc2cc(C)cc(C)c2C1=Nc1cc(C)cc(C)c1,5.4311203400000005
4700,DEHFED,C16 H15 N5 O2,CCOC(=O)C(=NNc1cccc2cccnc12)C1=NC=CN1,5.52880921
4701,DEHMET,C5 H9 N1 O2 S1,C[S+]1CCC(N1)C(=O)[O-],5.52935344
4702,DEHNOV,C16 H29 N5,C1CNCCNCCCN(CCNC1)Cc1ccccn1,6.812914470000001
4703,DEHPEO,C27 H6 F15 N3 O3,Fc1c(F)c(F)c(NC=C2C(=O)C(=CNc3c(F)c(F)c(F)c(F)c3F)C(=O)C(=CNc3c(F)c(F)c(F)c(F)c3F)C2=O)c(F)c1F,5.71275818
4704,DEHXIY,C26 H22 O4,OCCOc1cc(C#Cc2ccccc2)c(OCCO)cc1C#Cc1ccccc1,5.81153551
4705,DEHYIB,C25 H19 N1 O1,O=Cc1ccc(cc1)c1ccc(cc1)N(c1ccccc1)c1ccccc1,5.63574996
4706,DEHYUN,C39 H27 N1 O3,O=Cc1ccc(cc1)c1ccc(cc1)N(c1ccc(cc1)c1ccc(C=O)cc1)c1ccc(cc1)c1ccc(C=O)cc1,5.40227628
4707,DEJHUV,C16 H20 N4 O6,CCOC(=O)C(C(C)=O)=C(N)c1nc(C)c(C(=O)OCC)c(n1)C(N)=O,5.981606660000001
4708,DEJMEN,C48 H32 N2 S1,S1N=C2C(=CC=C(C#CC(c3ccccc3)(c3ccccc3)c3ccccc3)C2=N1)C#CC(c1ccccc1)(c1ccccc1)c1ccccc1,5.43928376
4710,DEJWAQ,C14 H13 N3 O2,CCN1C(=NC2=NOC(=O)C(=C12)c1ccccc1)C,6.14269806
4711,DEJYOH,C24 H18 O7,Oc1ccccc1C(=O)CC(=O)c1cccc(C(O)=CC(=O)c2ccccc2O)c1O,6.2575301
4712,DEKFIJ,C10 H12 N2 S4,N#CC1=C(SCCSCCSCCS1)C#N,5.771534770000001
4713,DEKFOP,C11 H14 N2 S4,N#CC1=C(SCCSCCCSCCS1)C#N,5.8504477900000005
4714,DEKKIN,C27 H28 O4,COC1(OC(C)c2ccccc2)OC(=O)C2=CC=C(C)C3=C(C)C=C(C)C=C(C)C3=C12,5.51765255
4715,DEKVAQ,C16 H10 N2 S4,CSC1=C(C#N)C2=S(S1)SC(=N2)c1ccc2ccccc2c1,5.30404317
4716,DEKZEY,C23 H35 N3 O1,CC(C)(C)N=C1C(=O)N(C2=C1N(C1=C2C2CCC1C2)C(C)(C)C)C(C)(C)C,5.63057979
4717,DELJUA,C18 H17 N5,CCN(CC)c1ccc(C=Cc2cnc(C#N)c(n2)C#N)cc1,4.74484921
4718,DELKAH,C24 H21 N5,CCN(CC)c1ccc(cc1)C=Cc1nc(C#N)c(nc1c1ccccc1)C#N,4.7614481500000005
4719,DELKEL,C22 H25 N5,CCN(CC)c1ccc(cc1)C=Cc1nc(C#N)c(nc1C(C)(C)C)C#N,4.8191363
4720,DELKIP,C26 H33 N5,CCCCN(CCCC)c1ccc(cc1)C=Cc1nc(C#N)c(nc1C(C)(C)C)C#N,4.76525775
4721,DELKOX,C36 H31 N2 P1,CN1c2ccccc2N(C)C2=C(c3ccccc3)P(C=C12)(c1ccccc1)(c1ccccc1)c1ccccc1,6.007729589999999
4722,DELMIR,C20 H26 O5,CC(C)C1=C(O)C(=O)C23OC2(C(=O)CC2C(C)(C)CCCC32C)C1=O,6.73155243
4723,DELMUD,C12 H14 N2 O4 S1,COc1ccc(cc1)C(=O)NC(=S)NCCC(O)=O,6.24338018
4724,DELNAK,C24 H25 Br1 N4 O4,COC(=O)C(=CN(C)C)c1ccccc1OC(=CN(C)C)C1=NC(=NO1)c1ccc(Br)cc1,6.14487497
4725,DELNOA,C28 H26 N4,Cc1cc(cc(C)c1N=Cc1cccnc1)c1cc(C)c(N=Cc2cccnc2)c(C)c1,5.602279960000001
4726,DELQOB,C27 H22 N2 O1,Cc1ccnc(c1)c1cc(CC(O)c2c3ccccc3cc3ccccc23)ccn1,5.40935124
4727,DELXAU,C21 H25 N1 O5,CCCCNC1=C(OC(=C1C(=O)OC)C(=O)OC)C=Cc1ccc(C)cc1,5.1356047
4728,DEMBON,C30 H18,c1ccc2c(c1)cc(C#Cc1cc3ccccc3c3ccccc13)c1ccccc21,5.56717727
4729,DEMDAB,C16 H13 F1 N4 O1,NN1C(=NC(=Cc2ccc(F)cc2)C1=O)Nc1ccccc1,5.7486772
4730,DEMDOP,C15 H19 N3 O2 S1,CC(C)(C)NC(=O)NC(=S)NC(=O)C=Cc1ccccc1,6.20365157
4731,DEMFAD,C17 H10 Br1 N1 O2 S1,Brc1ccc2C(=O)N(CC3=CSC=C3)C(=O)c3cccc1c23,5.77888185
4732,DEMFUX,C19 H15 Cl1 N2 O1,Nc1ccccc1N=C(c1ccccc1)c1cc(Cl)ccc1O,5.43520205
4733,DEMXTC10,C20 H20 N2 O7 S1,CN(C)C1C2CC3Sc4cccc(O)c4C(=O)C3=C(O)C2(O)C(=O)C(=C1O)C(N)=O,6.20229099
4735,DEMYUS,C28 H22 N2 S3,CN(C)c1ccc(cc1)C#CC1=CC2=C(S1)C1=C(S2)C=C(S1)C#Cc1ccc(cc1)N(C)C,5.214789830000001
4736,DEMZAZ,C24 H12 S3,S1C2=C(SC(=C2)C#Cc2ccccc2)C2=C1C=C(S2)C#Cc1ccccc1,5.273566419999999
4737,DEMZIH,C36 H36 S3,CCCCCCc1ccc(cc1)C#CC1=CC2=C(S1)C1=C(S2)C=C(S1)C#Cc1ccc(CCCCCC)cc1,5.35139098
4738,DEMZON,C26 H16 O2 S3,COc1ccc(cc1)C#CC1=CC2=C(S1)C1=C(S2)C=C(S1)C#Cc1ccc(OC)cc1,5.1508430700000005
4740,DENDAC,C15 H14 N4 O2 S1,CN(C)C1=NSC(=N1)C(=O)C1=CN(C(C)=O)c2ccccc12,5.7002409400000005
4741,DENDEI,C18 H16 N2 O3 S1,COc1ccc(C=CC(=O)NC2=Nc3ccccc3S2)cc1OC,6.0183420299999995
4743,DENGEL,C47 H33 N3 S2,CC1=C(N=C(S1)c1ccccc1)C1=C(C2=C(C)SC(=N2)c2ccccc2)C2(c3ccccc3N(c3ccccc3)c3ccccc23)c2ccccc12,5.51139393
4744,DENKEP,C36 H24 N2 S1,N#CC(=Cc1ccc(cc1)C(c1ccccc1)=C(c1ccccc1)c1ccccc1)C1=Nc2ccccc2S1,5.0196842
4745,DENQUJ,C32 H27 F3 N4,FC(F)(F)C1=CC(=NC2=NN3C(=C12)NC(C1CCCCC31c1ccccc1)c1ccccc1)c1ccccc1,5.70051305
4746,DENSAN,C10 H14 N2 O1,CCN(CC)c1ccc(cc1)N=O,5.839019010000001
4747,DENVEA,C16 H21 N1 O1 S1,CCCC(=NS(=O)C(C)(C)C)C#Cc1ccccc1,6.21861783
4748,DENWAU,C31 H22,Cc1c2ccccc2c(C=Cc2c3ccccc3cc3ccccc23)c2ccccc12,5.0452629
4749,DENYUQ,C40 H26 N2,Nc1ccccc1c1c2ccccc2c2N3c4ccccc4C4c5ccccc5C3(c3ccccc43)c3cccc1c23,4.83872849
4750,DEPDIL,C22 H18 N2 O3,CN(C)c1ccc(Nc2ccc(O)c3C(=O)c4ccccc4C(=O)c23)cc1,4.77369328
4751,DEPDOU,C56 H38 N4,N#CC(=Cc1ccc(cc1)N(c1ccccc1)c1ccccc1)c1ccc(cc1)N1C(=NC(=C1c1ccccc1)c1ccccc1)c1c2ccccc2cc2ccccc12,5.424317500000001
4753,DEPHUE,C32 H22 B1 N7 O1,CN(C)c1cccc(O[B-]23N4C5=NC6=C7C=CC=CC7=C(N=C7[N+]2=C(N=C4c2ccccc52)c2ccccc72)N36)c1,4.165518820000001
4754,DEPJAM,C34 H26 B1 N7 O1,CCN(CC)c1cccc(O[B-]23N4C5=NC6=C7C=CC=CC7=C(N=C7[N+]2=C(N=C4c2ccccc52)c2ccccc72)N36)c1,4.197900369999999
4755,DEPJOX,C16 H12 N2 S2,S=C1N2Cc3ccccc3CN2C(=S)c2ccccc12,5.6101712599999995
4756,DEPLUI,C21 H15 N5 O1,O=C1CCN2C(c3ccccc3)C(=CN12)c1nc2ccccc2nc1C#N,5.1712516200000005
4757,DEPQAQ,C36 H32 N6 S2,CC1=NN(C(=S)C1=C(NCCNC(c1ccccc1)=C1C(=NN(C1=S)c1ccccc1)C)c1ccccc1)c1ccccc1,5.30485952
4758,DEPRUM,C21 H16 N2 S8,Cc1ccnc(c1)c1cc(ccn1)C1CSC2=C(S1)SC(S2)=C1SC2=C(SCCS2)S1,4.62484701
4759,DEPTBZ10,C25 H24 Br1 N1 O5,COC1=CC23CCCN2CCc2cc4OCOc4cc2C3C1OC(=O)c1ccc(Br)cc1,5.99738926
4760,DEPTEA,C19 H15 Br1 N4,Brc1ccc(cc1)C(=NNc1ccccc1)N=Nc1ccccc1,4.46702097
4761,DEPXOL,C23 H20,C1CC2CC1C1=CC(C=C21)=C(c1ccccc1)c1ccccc1,6.13535098
4762,DEPXOO,C16 H16 Br1 N1 O3,CCOc1cc(Br)cc(C=Nc2ccccc2OC)c1O,6.08092822
4763,DEPYIG,C19 H20 O2,CC(C)=C1C2CCC1C1=C2C2CC1C1C2C(=O)C=CC1=O,5.98079032
4764,DEPZIK,C20 H12 N2 O2 S2,Oc1ccccc1Sc1cc(C#N)c(Sc2ccccc2O)cc1C#N,5.78105875
4765,DEQBUW,C18 H10 S2,S1C=Cc2c1c1cc3ccccc3cc1c1SC=Cc21,5.492073850000001
4766,DEQKOC,C21 H13 I1 O1,Ic1cccc2C(=O)C(=C(c3ccccc3)c12)c1ccccc1,5.61779044
4767,DEQKUI,C21 H13 I1 O1,Ic1ccc2c(c1)C(=O)C(=C2c1ccccc1)c1ccccc1,5.295607650000001
4768,DEQLAP,C23 H15 F3 O2,COc1ccc(cc1)C1=C(c2ccccc2)c2cc(ccc2C1=O)C(F)(F)F,5.09397128
4769,DEQLET,C22 H16 O1,Cc1ccc2C(=O)C(=C(c3ccccc3)c2c1)c1ccccc1,5.46921628
4770,DEQPIB,C10 H12 B1 Br3 F2 N4,CCCCNC=[N+]1N=CC2=C(Br)C(=C(Br)N2[B-]1(F)F)Br,5.877387049999999
4771,DEQSOK,C31 H21 N9 O3 S2,CC(=O)N1c2ccc(Oc3nnc(Sc4ccc(Cc5ccc(Sc6nnc(Oc7ccc1cc7)nn6)cc5)cc4)nn3)cc2,5.58295987
4772,DEQSUQ,C30 H19 N9 O3 S3,CC(=O)N1c2ccc(Oc3nnc(Sc4ccc(Sc5ccc(Sc6nnc(Oc7ccc1cc7)nn6)cc5)cc4)nn3)cc2,5.32717285
4773,DEQWEE,C22 H16 Br1 N1 O2 S1,Brc1ccc(cc1)N=CC(OC(=O)C1=CC=CS1)=CC=Cc1ccccc1,5.8398353499999995
4774,DEQYAC,C20 H18 N2 S2,CSc1ccc(cc1)C(=Cc1ccncn1)c1ccc(SC)cc1,5.74432339
4775,DEQYEG,C22 H24 N4,CN(C)c1ccc(cc1)C(=Cc1cnccn1)c1ccc(cc1)N(C)C,5.6305797900000005
4776,DEQYIK,C20 H19 N3,CN(C)c1ccc(cc1)C(=Cc1cnccn1)c1ccccc1,5.59765402
4777,DEQYOQ,C22 H24 N4,CN(C)c1ccc(cc1)C(=Cc1cccnn1)c1ccc(cc1)N(C)C,5.64609028
4778,DEQYUW,C20 H19 N3,CN(C)c1ccc(cc1)C(=Cc1cccnn1)c1ccccc1,5.694526549999999
4779,DEQZAD,C36 H32 N2 S4,CSc1ccc(cc1)C(=Cc1cc(C=C(c2ccc(SC)cc2)c2ccc(SC)cc2)ncn1)c1ccc(SC)cc1,5.47220953
4780,DEQZIL,C22 H23 Cl1 N4,CN(C)c1ccc(cc1)C(c1ccc(cc1)N(C)C)=C(Cl)c1ccncn1,5.35792172
4783,DERBOS,C22 H16 N2 S6,C(SC1=C(SCc2ccncc2)SC(S1)=C1Sc2ccccc2S1)c1ccncc1,5.9745317
4784,DERBUY,C19 H14 N2 S8,C1SC2=C(S1)SC(S2)=C1SC(=C(SCc2ccncc2)S1)SCc1ccncc1,5.80364421
4785,DERCAF,C20 H16 N2 O2 S6,C1COC2=C(O1)SC(S2)=C1SC(=C(SCc2ccncc2)S1)SCc1ccncc1,5.41370505
4786,DERFAI,C12 H11 N3,C=CN1C=CC=C1N=Nc1ccccc1,5.70296208
4787,DERGEP,C31 H10 B1 F15 N2,Fc1c(F)c(F)c(c(F)c1F)[B-](N=[N+]=C(c1ccccc1)c1ccccc1)(c1c(F)c(F)c(F)c(F)c1F)c1c(F)c(F)c(F)c(F)c1F,6.1489566799999995
4788,DERJOC,C23 H15 N1 O1,O=C1NC(=C(c2ccccc2)c2ccccc12)C#Cc1ccccc1,5.86813518
4790,DERROK,C52 H46 S2,CCCCCCC1=CC2=C(S1)c1cc3c(cc1C12c2ccccc2c2ccccc12)C1=C(C=C(CCCCCC)S1)C13c2ccccc2c2ccccc12,5.71792834
4791,DERTEC,C18 H12 B2 F4 N4 S2,F[B-]1(F)N2C=C3C=CC(=[N+]3[B-](F)(F)N2C=C2C=CC(=[N+]12)C1=CC=CS1)C1=CC=CS1,4.44497975
4792,DERTID,C8 H4 S8,C1SC2=C(S1)SC(S2)=C1SC2=C(SCS2)S1,5.55765328
4793,DERTIG,C14 H12 B2 Br5 F4 N5,CCCCNC1=C(Br)C(=C2C=[N+]3[N+](=CC4=C(Br)C(=C(Br)N4[B-]3(F)F)Br)[B-](F)(F)N12)Br,4.797095070000001
4795,DERVII,C15 H14 O2,COc1ccc2C(O)CC(=C3C=CC=C3)c2c1,5.76854151
4796,DERWIJ,C27 H17 N1 O1,O=CC1=C2N3C(=C1)C(=Cc1cccc(C=C2c2ccccc2)c31)c1ccccc1,5.42676652
4797,DERWOP,C26 H16 I1 N1,IC1=C(c2ccccc2)C2=CC=CN2c2c(cccc12)C#Cc1ccccc1,5.67248532
4798,DERXUT,C20 H21 F1 N4 O1,Fc1ccc(cc1)N=CC1=NN(C(C1)N1CCOCC1)c1ccccc1,5.6147972
4799,DESDOV,C36 H24,C1=CC=CC=C2c3ccccc3C(=C3c4ccccc4C(=CC=C1)c1ccccc31)c1ccccc21,5.51302661
4801,DESFEP,C8 H4 N2 O1 S2,O1c2ccccc2N=C2SSN=C12,5.53860532
4802,DESHAN,C46 H36 N6,Cc1ccc(cc1)N(c1ccc(C)cc1)c1ccc(cc1)C(C#N)(C#N)C(C#N)(C#N)c1ccc(cc1)N(c1ccc(C)cc1)c1ccc(C)cc1,5.92201373
4803,DESKOC,C13 H10 O4,OC1=C(C(=O)Oc2ccccc12)C(=O)C1CC1,6.45018671
4804,DESMEU,C27 H30 N4 O4 S1,COc1cc(ccc1OCCOc1c(C)cccc1C)C=C(C#N)C(=O)N=C1NN=C(S1)C(C)(C)C,5.70786012
4805,DESQOI,C32 H39 B1 F1 N1,Cc1cc(C)c(c(C)c1)[B-](F)(c1cccc2cccc(C[N+](C)(C)C)c12)c1c(C)cc(C)cc1C,5.963375040000001
4806,DESSID,C14 H10 N6 S4,c1ccc(cc1)c1ns2ns(n1)s1nc(ns2n1)c1ccccc1,4.835191010000001
4807,DESSIE,C24 H24 S3,C1CC2CCC1C1=C2C=C(S1)C1=CC=C(S1)C1=CC2=C(S1)C1CCC2CC1,5.77670493
4808,DESWAZ,C22 H10 S4,c1cc2c(ccc3sc4ccc5sc6ccc7sccc7c6c5c4c23)s1,5.585681
4809,DESYEI,C24 H22 S2,C1CSC(C1)c1ccc(C2CCCS2)c2c3cccc4cccc(c34)c12,4.84335443
4810,DESZAF,C30 H22 O2,COc1ccc(cc1)c1ccc(c2ccc(OC)cc2)c2c3cccc4cccc(c34)c12,5.67139687
4811,DETDIP,C27 H21 Cl2 N3 O7,COC1C(O)C(O)C(OC1CO)N1c2c(Cl)cccc2c2c1c1Nc3c(Cl)cccc3c1c1C(=O)NC(=O)c21,5.7386089899999995
4812,DETFEO,C14 H11 N3 O2 S1,CN1C(=O)C(=NNC(=O)C2=CC=CS2)c2ccccc12,5.8567064
4813,DETFOY,C15 H12 N4 O2,CN1C(=O)C(=NNC(=O)c2ccncc2)c2ccccc12,5.958204869999999
4814,DETHOA,C12 H17 N1 O3,COc1ccc(C(C)=[NH+]CC(C)O)c([O-])c1,5.921741610000001
4815,DETJIW,C17 H13 N5 S1,CN1c2ccccc2C(=C1c1ccccc1)N=NC1=NN=CS1,5.33669684
4816,DETJUI,C13 H12 N4 S1,CN1C(=C(N=NC2=NC=CS2)c2ccccc12)C,5.37887449
4817,DETKEV,C32 H25 N3,Cc1cccc(c1)C1=Nc2cc(ccc2N1c1ccccc1)N(c1ccccc1)c1ccccc1,5.86214868
4818,DETLIY,C22 H20 N4 O1,COc1ccc(cc1)N=Nc1ccc(cc1)C(C1=CC=CN1)C1=CC=CN1,5.618062559999999
4819,DETLUJ,C36 H38 N2 O4,CCCCCOc1ccc(Nc2cccc3C(=O)c4c(Nc5ccc(OCCCCC)cc5)cccc4C(=O)c23)cc1,5.08417518
4820,DETNAU,C12 H20 N6 O2,C1CN(CCO1)Cc1nnc(CN2CCOCC2)nn1,6.0599754500000005
4821,DETNEY,C14 H24 N6 O2,C1CN(CCO1)CCc1nnc(CCN2CCOCC2)nn1,5.94487129
4822,DETPAW,C23 H26 N2 O2 S2,CC(C)N1CCCC2=C(SC(=C2)C=O)C2=CC=C(N2)C2=C(CCC1)C=C(S2)C=O,5.27084529
4823,DETPEA,C25 H30 N2 O2 S2,CC(C)N1CCCCC2=C(SC(=C2)C=O)C2=CC=C(N2)C2=C(CCCC1)C=C(S2)C=O,5.594116540000001
4824,DETSON,C22 H18 O1 S2,CC(=O)c1ccc(cc1)C(Sc1ccccc1)=CSc1ccccc1,5.677927609999999
4825,DETSUQ,C19 H18 O8,COc1cc(O)c2C(=O)C(=C(Oc2c1)c1cc(OC)c(O)c(OC)c1)OC,6.015076670000001
4826,DETWUV,C30 H32 N4,CCCCCCCCCc1nc2cccc3C=CC4(Nc5cccc6cccc(N4)c56)c(n1)c23,4.62049318
4827,DETXUY,C28 H24 N2 O3,Oc1ccccc1C1=NCCN2C(CC3=C(C2C1)C(=O)c1ccccc1O3)c1ccccc1,6.14487498
4828,DETYAF,C29 H26 N2 O4,COc1ccc(cc1)C1CC2=C(C3CC(=NCCN13)c1ccccc1O)C(=O)c1ccccc1O2,6.24310807
4829,DETZAD01,C32 H24 N4 O4,Oc1ccccc1C(=O)C1=CNc2ccccc2N=CC(=CNc2ccccc2N=C1)C(=O)c1ccccc1O,5.04798404
4830,DETZOU,C39 H29 N3 O3 S2,OC1(CC(C(C(C1C(=O)c1ccccn1)C1=CSc2ccccc12)C(=O)c1ccccn1)C1=CSc2ccccc12)c1ccccn1,6.02460065
4831,DEVCUD,C8 H18 N5 O2 P1 S3,CC(C)(C)N1P2(=NSN=S=N2)N(C(C)(C)C)S1(=O)=O,4.93151932
4832,DEVLEY,C54 H40,c1ccc(cc1)C=Cc1ccc(cc1)c1ccccc1C(c1ccccc1)=C(c1ccccc1)c1ccccc1c1ccc(C=Cc2ccccc2)cc1,5.75738485
4833,DEVMUP,C45 H38 O1,CC(C)(C)c1ccc(cc1)C(=C=C=C1c2cc3ccccc3cc2C(=O)c2cc3ccccc3cc12)c1ccc(cc1)C(C)(C)C,3.9981688
4834,DEVNAW,C48 H38 N2,CC(C)(C)c1ccc(cc1)C(=C=C=C1c2cc3ccccc3cc2C(=C(C#N)C#N)c2cc3ccccc3cc12)c1ccc(cc1)C(C)(C)C,4.127694999999999
4835,DEVQED,C14 H9 N3 O2,COc1ccc2C(=O)C3=CN=CC4=NC=C(N34)c2c1,5.80582111
4836,DEVREE,C39 H26 I1 N3,Ic1ccc(cc1)N1C(=Nc2c3ccccc3c3ccccc3c12)c1ccc(cc1)N(c1ccccc1)c1ccccc1,5.84174014
4837,DEVVUY,C28 H30 Cl1 N1 O3,CC1=C(C=CC(=O)CC2(O)C(=O)N(Cc3ccccc3)c3ccc(Cl)cc23)C(C)(C)CCC1,6.01480455
4838,DEVWEH,C27 H23 N1 O6,CCOC(=O)C1=C(C)N(Cc2ccccc2)C2(O)C=CC(=O)C3=C(O)c4ccccc4C(=O)C123,5.26513089
4839,DEVXUX,C22 H16 O2,Cc1cc2C3c4ccccc4C(c2cc1C)C1=C3C(=O)C=CC1=O,4.99492184
4840,DEVZUC,C16 H22 N4 O4 S2,CN(CCO)C(=S)NC(=O)c1ccc(cc1)C(=O)NC(=S)N(C)CCO,5.76282712
4841,DEWFIX,C23 H15 N3,N#Cc1ccc(C=Cc2ccc(cc2)N=Cc2ccc(cc2)C#N)cc1,5.635477849999999
4843,DEWLID,C13 H9 N1 S6,C1CSC2=C(S1)SC(S2)=C1SC=C(S1)c1ccncc1,4.87709654
4844,DEWNAV,C26 H24 N4 O3 S1,CCOC(=O)CSC1C(=NNc2ccccc2)C(=O)c2ccccc2C1=NNc1ccccc1,4.837640029999999
4845,DEWNID,C36 H30 N2 O5,CC(C)OC(=O)C1=C2C=Cc3ccc4cccnc4c3N2C(=C1C(=O)OC(C)C)C(=O)c1ccc(cc1)c1ccccc1,5.73371095
4846,DEWREC,C11 H18 N2 O7,CC1=[NH+]CCC(N1)(OC1OC(CO)C(O)C1O)C(=O)[O-],6.64991828
4847,DEWSUU,C24 H24 N2 O4,COc1ccc(C=Nc2ccc(cc2)N=Cc2ccc(OC)c(OC)c2)cc1OC,5.84282859
4848,DEWYIQ,C8 H13 N3 O3,C[N+]1=NOC(=C1)[N-]C(=O)OC(C)(C)C,6.32202109
4849,DEXBUG,C46 H34 N4,Cc1ccc(cc1)N(c1ccc(C)cc1)c1ccc2c3ccc(N(c4ccc(C)cc4)c4ccc(C)cc4)c4c(C#N)c(cc(c2c1)c34)C#N,4.167423619999999
4850,DEXCAN,C46 H34 N4 O4,COc1ccc(cc1)N(c1ccc(OC)cc1)c1ccc2c3ccc(N(c4ccc(OC)cc4)c4ccc(OC)cc4)c4c(C#N)c(cc(c2c1)c34)C#N,3.99463133
4851,DEXHEV,C15 H11 N1 O3 S1,O=S1(=O)OC(=Cc2ccccc2)C(=N1)c1ccccc1,5.850719900000001
4852,DEXJEY,C32 H32 N2 O2,CCCCOc1ccc(cc1)C(=Cc1ccc(cc1)C=C(C#N)c1ccc(OCCCC)cc1)C#N,5.26077707
4853,DEXPUR,C19 H13 N1,c1cc2C=Cc3cccc4c(cccc34)C=Cc(c1)n2,5.846366069999999
4854,DEXTAC,C16 H16 N4 O1,CN1N(c2ccccc2)C(=O)C(=C1C)N=CC1=CC=CN1,6.13780001
4855,DEXTEF,C22 H12 N4,c1cnc2c(c1)C(c1cccnc21)=C1c2cccnc2c2ncccc12,4.965533539999999
4856,DEXTIK,C22 H15 N1 O3,CCOC(=O)C1=C2c3ccccc3C(=O)C2=C2C=Cc3ccccc3N12,5.83602575
4857,DEXVIM,C33 H26 N2 O2,CN1CC(c2ccccc2)C2(CCC3=C(Nc4ccccc34)C2=O)C21C(=O)c1cccc3cccc2c13,5.73235037
4858,DEXWAF,C15 H14 Br1 N1 O1 S1,CN(C)c1ccc(C=CC(=O)C2=C(Br)C=CS2)cc1,5.23791951
4859,DEXWUA,C18 H11 F1,Fc1cc2ccccc2c2ccc3ccccc3c12,5.58486467
4860,DEXXAI,C21 H19 Cl4 N1 O2,COc1ccc2OCCc2c1C1C2CCC(C2)C1c1c(Cl)c(Cl)nc(Cl)c1Cl,6.30732695
4861,DEXXEL,C28 H26 N2 O6 S1,COC(=O)C1CN(C)C2(C(=O)c3ccccc3C2=O)C21SC(=C(C2=O)c1ccccc1)N1CCOCC1,5.892897549999999
4862,DEYCIU,C22 H27 N3 O1,CN1C(=Nc2ccccc12)N=C1C=C(C(=O)C(=C1)C(C)(C)C)C(C)(C)C,4.7524684
4863,DEYJEY,C16 H12 N2 O2 S1,Oc1ccc2ccccc2c1C=NNC(=O)C1=CC=CS1,5.99521236
4864,DEYNEA,C23 H26 O5,COC(=O)C1=C(C(=O)OC)C2=C(C=O)C=C(C=C(C)C2=C(C)C=C1)C(C)(C)C,5.751942570000001
4865,DEYPAA,C16 H14 O4,COc1cccc(C=CC(=O)c2ccccc2O)c1O,6.132085619999998
4866,DEYQAZ,C18 H16 O5,COC(=O)C1=C(C(=O)OC)C2=C(C=O)C=CC(=CC2=CC=C1)C,5.69670346
4867,DEYQED,C27 H24 O4,COC(=O)C1=C(C(=O)OC)C2=C(C=CC=Cc3ccccc3)C=CC(=CC2=CC=C1)C,4.9693431299999995
4868,DEYRUW,C36 H34 O7,COc1cc2c(cc1C)c(OC1=C3C(=CC(=O)C3(C)C)c3cc(OC)c(C)cc3C1=O)cc1c2C=C(OC)C(=O)C1(C)C,4.23082615
4869,DEYSEH,C36 H42 O2,CCCCCCc1ccc(cc1)C=CC1=CC=C(O1)C1=CC=C(O1)C=Cc1ccc(CCCCCC)cc1,5.04743981
4870,DEYVIP,C17 H26 O4,CCCCCCCCCCCC1=C(O)C(=O)C=C(O)C1=O,6.0694994399999995
4871,DEYVOV,C20 H19 N3 O1,CCCCC1=Cc2ccccc2N2N1N=C(C2=O)c1ccccc1,5.52908133
4872,DEZCAM01,C16 H12 O1,CC(=O)c1c2ccccc2cc2ccccc12,5.54404759
4873,DEZJUN,C22 H16,C1C2=CC=CC3=C1C(=CC=C2)C1=CC=CC2=CC=CC3=C1C2,4.39572714
4874,DEZJUQ,C18 H16 N4 O2,CCOC(=O)C1=NN(c2ccc(C)cc2)C2=Nc3ccccc3N12,6.00392
4875,DEZKEY,C16 H10 N6,c1ccc2nc(cnc2c1)N=Nc1cnc2ccccc2n1,5.97371536
4876,DEZKIE,C10 H2 Cl10 N2 P2,Clc1cc(Cl)c2c(N=P(Cl)(Cl)Cl)c(Cl)cc(Cl)c2c1N=P(Cl)(Cl)Cl,5.652621010000002
4877,DEZNAX,C18 H16,C1C2=CC=CC=C1C=CC1=CC=CC=C(C1)C=C2,4.503212120000001
4878,DEZPIH,C21 H24 O4,COC(=O)C1=CC(=C2C=C(C=CC(=C2C(=C1)C(=O)OC)C)C(C)C)C,5.653981590000001
4879,DEZPON,C21 H24 O4,COC(=O)C1=CC=C(C)C2=CC(=CC=C(C)C2=C1C(=O)OC)C(C)C,5.90813592
4880,DEZTUX01,C23 H28 O4,COC(=O)C1=CC=C(C)C2=C(C)C=C(C=C(C)C2=C1C(=O)OC)C(C)(C)C,6.057254309999999
4881,DEZTUZ,C43 H37 N3 P2,C1CCC2=C(P(c3ccccc3)C(=C2C1)c1ccccn1)c1cccc(n1)C1=C2CCCCC2=C(P1c1ccccc1)c1ccccn1,5.46241343
4882,DEZVAF,C23 H28 O4,COC(=O)C1=C(C(=O)OC)C2=C(C)C=C(C=C(C)C2=C(C)C=C1)C(C)(C)C,5.9595654399999995
4883,DEZVEJ,C8 H18 N4 S3,CC(C)(C)N=S=NSN=S=NC(C)(C)C,5.40526953
4884,DEZXEO,C37 H27 Cl1 N4 O1 S1,Cc1cccc2cc(C3C4CSCN4C4(C3C(=O)c3ccccc3)c3ccccc3c3nc5ccccc5nc43)c(Cl)nc12,6.003103660000001
4885,DEZXOW,C13 H9 N3 O2,OC1=CC(=NC2=NNC=C2)c2ccccc2C1=O,5.32934977
4886,DEZYIT,C35 H33 N3 O2 S2,CCCCN1C(=S)c2ccccc2C21c1ccc(cc1Oc1cc(O)c(cc21)C1=Nc2ccccc2S1)N(CC)CC,5.98487203
4887,DHANQU04,C14 H8 O4,Oc1cccc2C(=O)c3cccc(O)c3C(=O)c12,6.2455571
4888,DHANTQ01,C14 H8 O4,Oc1cccc2C(=O)c3c(O)cccc3C(=O)c12,6.29698661
4889,DHBZCO,C16 H10,c1ccc2C#Cc3ccccc3C=Cc2c1,5.458331719999999
4890,DHCTET10,C22 H21 Cl1 N2 O8,CN(C)C1C2CC3=C(C(=O)c4c(O)ccc(Cl)c4C3(C)O)C(=O)C2(O)C(=O)C(=C1O)C(N)=O,6.53590257
4891,DHXBAN,C18 H14 O2,OC1C=Cc2ccc3cc4ccccc4cc3c2C1O,5.32962188
4892,DHXBZQ,C6 H4 O4,OC1=CC(=O)C(=CC1=O)O,6.33644312
4893,DIBANT,C34 H16 O2,O=C1c2ccccc2c2ccc3c4ccc5c6ccccc6C(=O)c6ccc(c7ccc1c2c37)c4c56,3.83925431
4894,DIBCUM,C16 H13 N3 O2 S1,COc1ccc2N3C(=S)C4=C(C)C(=O)C(=CN4C3=Nc2c1)C,4.9293423999999995
4895,DIBDIC,C17 H15 F5 N2 O1,CN(C)c1cc(C)c(NC(=O)c2c(F)c(F)c(F)c(F)c2F)c(C)c1,6.0629687
4896,DIBLOP,C20 H14 N2,c1ccc2c(ccnc2c1)C=Cc1ccnc2ccccc12,5.69697558
4897,DIBTOY,C36 H34 O8,CCOc1cc(OC)c2c(OC)cc3c4cc(OC)c5c(OCC)cc(OC)c6c(OC)cc(c7cc(OC)c1c2c37)c4c56,4.349739899999999
4898,DIBVAN,C33 H26 N2 O3,COc1ccc(cc1)C(c1ccc(OC)cc1)=C(c1ccc(OC)cc1)c1ccc(cc1)C=C(C#N)C#N,4.73940693
4899,DIBVER,C32 H24 N2 O2,COc1ccc(cc1)C(c1ccc(OC)cc1)=C(c1ccccc1)c1ccc(cc1)C=C(C#N)C#N,4.70512059
4900,DIBYEV,C35 H27 N1 O1,CN1c2ccc(cc2C(C)(C)C21Oc1ccccc1C=C2)c1ccc2ccc3cccc4ccc1c2c34,5.50078149
4902,DIBZOE,C19 H14 O4,O=C1OC(C=C1Cc1ccccc1)=Cc1ccc2OCOc2c1,5.4300318899999995
4903,DIBZPO,C14 H8 I2 O4,Ic1ccccc1C(=O)OOC(=O)c1ccccc1I,6.001470970000001
4904,DIBZUK,C21 H20 O5,COc1cc(OC)c(C=C2OC(=O)C(=C2)Cc2ccccc2)c(OC)c1,5.53751686
4905,DICBEY,C19 H13 N1 O5,OC(=O)c1cc([NH+]=Cc2c([O-])ccc3ccccc23)cc(c1)C(O)=O,5.12744129
4906,DICLEG,C30 H22 N2 O4,CCCN1C(=O)c2ccc3c4ccc5C(=O)N(CCC)C(=O)c6ccc(c7ccc(C1=O)c2c37)c4c56,4.18810427
4907,DICLIK,C28 H18 N2 O4,CCN1C(=O)c2ccc3c4ccc5C(=O)N(CC)C(=O)c6ccc(c7ccc(C1=O)c2c37)c4c56,3.7622461
4908,DICLOQ,C40 H26 N2 O4,Cc1cccc(C)c1N1C(=O)c2ccc3c4ccc5C(=O)N(C(=O)c6ccc(c7ccc(C1=O)c2c37)c4c56)c1c(C)cccc1C,4.2710989900000005
4909,DICMIL,C32 H26 N2 O6,CCOCCN1C(=O)c2ccc3c4ccc5C(=O)N(CCOCC)C(=O)c6ccc(c7ccc(C1=O)c2c37)c4c56,4.4808987799999995
4910,DICMOR,C32 H26 N2 O6,COCCCN1C(=O)c2ccc3c4ccc5C(=O)N(CCCOC)C(=O)c6ccc(c7ccc(C1=O)c2c37)c4c56,4.3282429
4911,DICMUX,C34 H30 N2 O4,CCCCCN1C(=O)c2ccc3c4ccc5C(=O)N(CCCCC)C(=O)c6ccc(c7ccc(C1=O)c2c37)c4c56,4.27490859
4912,DICNAE,C34 H30 N2 O6,CCOCCCN1C(=O)c2ccc3c4ccc5C(=O)N(CCCOCC)C(=O)c6ccc(c7ccc(C1=O)c2c37)c4c56,4.26266347
4913,DICNEI,C42 H30 N2 O4,CC(CN1C(=O)c2ccc3c4ccc5C(=O)N(CC(C)c6ccccc6)C(=O)c6ccc(c7ccc(C1=O)c2c37)c4c56)c1ccccc1,4.26946631
4914,DICNIM01,C40 H26 N2 O4,O=C1N(CCc2ccccc2)C(=O)c2ccc3c4ccc5C(=O)N(CCc6ccccc6)C(=O)c6ccc(c7ccc1c2c37)c4c56,4.19735614
4915,DICNOS,C34 H30 N2 O4,CCC(C)CN1C(=O)c2ccc3c4ccc5C(=O)N(CC(C)CC)C(=O)c6ccc(c7ccc(C1=O)c2c37)c4c56,4.235179969999999
4916,DICNUY01,C32 H26 N2 O4,CCCCN1C(=O)c2ccc3c4ccc5C(=O)N(CCCC)C(=O)c6ccc(c7ccc(C1=O)c2c37)c4c56,4.21395509