,ID,formula,smiles,HOMO_LUMO_gap
2116,BIZFOI,C15 H15 N1 O3 S1,CCOC(=O)C(=Nc1ccc(OC)cc1)C1=CC=CS1,6.11058862
2119,BIZGEZ,C21 H19 N1 O3,CCOC(=O)C(=Nc1ccc(OC)cc1)c1ccc2ccccc2c1,6.05426106
2122,BIZHEA,C17 H16 Br1 N1 O3,CCOC(=O)C(=Nc1ccc(OC)cc1)c1ccc(Br)cc1,6.08283301
2123,BIZKUR,C21 H30 O6 S8,COCCOCOCC1(COCOCCOC)CSC2=C(SC1)SC(S2)=C1SC2=C(SCCS2)S1,5.81452876
2124,BIZLOM,C39 H54,CC1=C(C=CC(C)=CC=CC=CC=CC=C(C)C=CC=C(C)C=CC2=C(C)CCCC2(C)C)C(C)(C)CCC1,4.2814393200000005
2125,BIZQAF,C20 H20 Cl2,CCCCCCc1c2cccc(Cl)c2cc2c(Cl)cccc12,5.33941798
2126,BIZQEI,C26 H16 S2,S1C=CC=C1c1c2ccccc2c(C2=CC=CS2)c2cc3ccccc3cc12,4.4808987700000005
2127,BIZQEJ,C19 H12,Cc1c2cccc(C#C)c2cc2c(cccc12)C#C,5.1296181899999995
2128,BIZQIN,C24 H22,CCCCCCc1c2cccc(C#C)c2cc2c(cccc12)C#C,5.11247502
2129,BIZQOT,C21 H14,C=CCc1c2cccc(C#C)c2cc2c(cccc12)C#C,5.10267892
2130,BIZXAM,C18 H12 Br1 N1 O4,COc1ccc(cc1)C1C(=NOC21C(=O)c1ccccc1C2=O)Br,6.20963806
2131,BIZYAL01,C9 H11 N3 O2 S1,COc1cccc(C=NNC(N)=S)c1O,5.92582332
2132,BIZZIU,C26 H30 N2 O2,CC(C=C(O)c1ccccc1)=NC1CCCCC1N=C(C)C=C(O)c1ccccc1,6.0901800900000005
2133,BIZZUG,C15 H16 N2 O1,CN(C)c1ccc(C=CC(=O)C2=CC=CN2)cc1,5.61724622
2134,BMCXIN,C18 H14 N2 O1 S1,CC1=[N+](Cc2ccccc2)C(=C2N1c1ccccc1C2=O)[S-],4.67872555
2135,BMEANN,C16 H14,C1C2=CC=CC=C1C=C1CC(=C2)C=CC=C1,5.277103909999999
2136,BMEOTR,C8 H7 Br1 O2,COC1=CC=CC=C(Br)C1=O,5.47166531
2137,BMFYBF01,C30 H18 Br2,BrC=C1C(C(Br)C21c1ccccc1c1ccccc21)=C1c2ccccc2c2ccccc12,5.224041699999999
2138,BMPIMT,C18 H15 N5 O1,COC1=C(N2N=C(Cc3ccccc3)N=NC2=N1)c1ccccc1,5.36608513
2139,BMRIZN,C19 H18 Br1 N3 O2,CC1=C(NC(=N1)N1CCOCC1)C=C1C=C(Br)c2ccccc2C1=O,4.30130364
2140,BMXFYB,C29 H42 O4,COC1(OC(C(=C1)C(C)(C)C)=C1C(=O)Oc2c1cc(cc2C(C)(C)C)C(C)(C)C)C(C)(C)C,5.57452434
2141,BNAFTH,C34 H30,CCCCc1c2c3cccc4cccc(c34)c2c(CCCC)c2c3cccc4cccc(c34)c12,5.2101638999999995
2142,BNAPAE,C18 H21 Cl1 N4 O2,COc1ccc2nc3cc(Cl)ccc3c(NCCCNCCO)c2n1,5.38486099
2143,BNBZTP,C26 H20 S2,CC(C)(C)c1cccc2Sc3ccc4Sc5ccc6ccccc6c5c4c3c12,5.60962703
2144,BNPERY01,C22 H12,c1cc2ccc3ccc4ccc5cccc6c(c1)c2c3c4c56,5.30758066
2145,BNPQOX,C14 H15 N1 O2,CC(C)(C)c1ccc2c(C=CC(=O)C2=NO)c1,5.80500477
2146,BNPYRE10,C20 H12,c1ccc2c(c1)cc1ccc3cccc4ccc2c1c34,5.24499447
2147,BNZACR,C21 H13 N1,c1ccc2c(c1)ccc1cc3ccc4ccccc4c3nc21,5.763915580000001
2148,BNZQUI02,C6 H4 O2,O=C1C=CC(=O)C=C1,6.79549918
2149,BOAZME,C14 H10 N2 O1,O=C(c1ccccc1)C(=[N+]=[N-])c1ccccc1,6.42488012
2150,BOBBAW,C16 H13 N1 O3 S1,Nc1ccc(OS(=O)(=O)c2cccc3ccccc23)cc1,5.97480382
2151,BOBFUT,C38 H32 O12,COC1=C(CC(C)OC(C)=O)C2=C3C(=C(OC)C(=O)c4c(O)cc5OCOc6cc(O)c(C1=O)c2c6c5c34)CC(C)OC(=O)c1ccccc1,4.537770569999999
2152,BOBGIL,C47 H31 N1,c1cc2nc(c1)c1ccc(cc1)c1ccc(cc1)c1ccc(cc1)c1ccc(cc1)c1ccc(cc1)c1ccc(cc1)c1ccc2cc1,5.46622303
2155,BOBNOW,C28 H36 N2 O2,CCCCCCNC(=O)c1c2ccccc2c(C(=O)NCCCCCC)c2ccccc12,5.47710759
2156,BOBPEO,C30 H28 N4 O2,Cc1cc(C)cc(NC(=O)c2ccc(cc2)N=Nc2ccc(cc2)C(=O)Nc2cc(C)cc(C)c2)c1,5.71384664
2157,BOBRUG,C18 H29 N1 O1,CC(C)(C)N=C1C=C(C=C(C1=O)C(C)(C)C)C(C)(C)C,5.88146877
2158,BOBVAQ,C16 H15 N1 O1,COc1ccc(C=CC=Cc2ccncc2)cc1,5.64309703
2159,BOBVEU,C19 H21 N1 O1,CCCCOc1ccc(C=CC=Cc2ccncc2)cc1,5.58432044
2160,BOCBEC,C24 H18 Cl2 N2 O5,CCOC(=O)C1=CN(c2cc(Cl)ccc2C1=O)c1c2ccc(Cl)cc2ncc1C(=O)OCC,5.918748369999999
2162,BOCHEG,C19 H18 O3,O=C1C=C2CCCc3ccc(CCCC(=C1)C(=O)C2=O)cc3,5.61125971
2163,BOCHUW,C16 H15 N1 O2 S1,COc1ccc2N=S(=O)(C=Cc2c1)c1ccc(C)cc1,5.81561721
2164,BOCJEL,C16 H17 N1 O2,O=C([O-])C1[NH2+]CC(C1)Cc1ccc2ccccc2c1,6.34215752
2165,BOCMUB,C20 H22 N2 O2,CC(C)Nc1ccc(NC(C)C)c2C(=O)c3ccccc3C(=O)c12,4.27490859
2166,BOCNEN,C19 H24 N2 O5,COC(=O)C(=O)[C-]([N+]1=C(NC(C)(C)C1(C)C)c1ccccc1)C(=O)OC,5.79520868
2167,BOCNOW,C6 H8 Cl2 N2 O2,ClC1(CCC(Cl)(CC1)N=O)N=O,7.27659648
2168,BOCRIU,C15 H18 N2 O2,Cc1ccc(NN=C2C(=O)CC(C)(C)CC2=O)cc1,5.82269217
2169,BOCWIA,C32 H43 N1 O2,CCCCN(CCCC)c1ccc2c(OC3=C2c2ccccc2C(CCCC)(CCCC)C3=O)c1,5.39248018
2170,BOCWOG,C32 H43 N1 O2,CCCCN(CCCC)c1ccc2c(Oc3cccc4c3C2=CC(=O)C4(CCCC)CCCC)c1,5.49016904
2171,BOCZOI,C12 H13 N3 O2 S1,CCOC(=O)N1N(C(=S)N=C1C)c1ccccc1,6.157936439999999
2172,BODBAZ,C14 H17 N3 S1,S=C1N=NC2(CCCCCC2)N1c1ccccc1,5.9786134099999995
2173,BODBED,C12 H9 N1 O3 S1,OC(=O)c1ccccc1Sc1cc[n+]([O-])cc1,5.607722229999999
2174,BODBUR,C6 H12 N2 S2,CCNC(=S)C(=S)NCC,6.08936375
2175,BODCOM,C10 H4 O4,O=C1C=CC(=O)C2=C1C(=O)C=CC2=O,5.5435033600000025
2176,BODDII,C32 H40 N2,CC(C)c1cccc(C(C)C)c1N=Cc1ccccc1C=Nc1c(cccc1C(C)C)C(C)C,5.021861110000001
2177,BODFOR,C24 H16 N2,c1ccc(cc1)N=C1c2cccc3cccc(C1=Nc1ccccc1)c23,5.865141940000002
2178,BODKIQ,C28 H33 N2 P1 S2,CCCCCCCCSC(=S)NN=Cc1ccccc1P(c1ccccc1)c1ccccc1,6.02133529
2179,BODNEN,C30 H41 N3 O5,CCC1=C(C)C(NC1=O)=CC1=C(CC)C(=C(CC2=C(CCC(O)=O)C(=C(N2)C(=O)OC(C)(C)C)C)N1)CC,5.20363316
2180,BODPAO,C22 H19 N1 O1,CC1(CC(=C2C=Cc3ccccc3N12)C(=O)c1ccccc1)C=C,5.20145625
2181,BODVUO,C21 H20 N2 O2,CN(C)C=NC1=C2CCCC(=C2Oc2cc3ccccc3cc12)C=O,5.27166163
2182,BODWAV,C20 H18 N2 O2,CN(C)C=NC1=C2CCC(=C2Oc2cc3ccccc3cc12)C=O,5.064855099999999
2183,BODWEZ,C22 H22 N2 O2,CN(C)C=NC1=C2CCCCC(=C2Oc2cc3ccccc3cc12)C=O,5.0504330699999995
2184,BODWOJ,C25 H31 N5 O1 S1,CCN(CC)c1ccc(C=NN=C2NN=C(CS2)C2CC(C)(C2)c2ccccc2)c(O)c1,5.8665025
2185,BOFBIH,C6 H3 N7,C1=NC2=NC=NC3=NC=NC(=N1)N23,6.07575806
2186,BOFCAC,C27 H22 Cl1 N1 O4 S2,COC(=O)C1=CC2=C(CC1c1ccc(Cl)cc1)C(C(=O)N(C2=O)c1ccc(C)cc1)=C1SCCS1,5.09261071
2187,BOFCIL,C25 H23 N1 O6,CCOC(=O)C(=O)C1C(C=C(C(=O)OC)C21C(=O)N(C)c1ccccc21)c1ccccc1,6.312224990000001
2188,BOFGOV,C22 H21 N3 O2 S1,COc1ccc2NC3=C(CCN4C(=O)C5=C(SC6=C5CCCCC6)N=C34)c2c1,5.69615923
2189,BOFHEJ,C17 H16 N4 S1,Cc1nn(c2ccccc2)s2c1c(C)nn2c1ccccc1,4.92907028
2190,BOFPAP,C16 H22 Cl2 N2 O1 S1,CC(C)CN(CC(C)C)C(=S)NC(=O)c1ccc(Cl)cc1Cl,5.917659909999999
2191,BOFQUL,C28 H25 N3 O2,Cc1cc(C)c2N(Cc3ccccc3)C(=O)C(=CC3=C(O)N(N=C3C)c3ccccc3)c2c1,5.414793510000001
2194,BOGBIL,C14 H11 N3,Nc1nc2ccccc2cc1c1ccccn1,5.7889500599999995
2195,BOGGUB,C24 H14 F4 O2,COc1ccc(cc1)C#Cc1c(F)c(F)c(C#Cc2ccc(OC)cc2)c(F)c1F,5.56663304
2196,BOGHEM,C21 H12 F4 N2,Fc1c(F)c(F)c2N3c4ccccc4NC3(C=Cc2c1F)c1ccccc1,5.56037442
2197,BOGHUC,C30 H12 B1 F15 O2,Cc1ccc(cc1)C1=[O+]C(=C(C[B-](c2c(F)c(F)c(F)c(F)c2F)(c2c(F)c(F)c(F)c(F)c2F)c2c(F)c(F)c(F)c(F)c2F)O1)C,5.05152152
2198,BOGJUC,C22 H21 P1 S2,CC(C)(C(=S)[S-])[P+](c1ccccc1)(c1ccccc1)c1ccccc1,4.48389203
2199,BOGSEW,C14 H13 N3 O2,CC(C=CC1=CC=CO1)=NNC(=O)c1ccncc1,5.96147024
2200,BOGSUM,C22 H23 Br1 O4 S1,CCCOc1ccc(cc1)C1CC(=CC(=O)C1C(=O)OCC)C1=C(Br)C=CS1,6.1590248899999995
2201,BOGWEA,C15 H8 O4,Oc1cc2C(=O)c3ccccc3C(=O)c2cc1C=O,6.25480897
2202,BOGWIE,C8 H11 N7 S2,CCC1=NN=C(NN=NC2=NN=C(CC)S2)S1,5.6792881699999995
2203,BOGWIG,C33 H26 Cl2 N1 O3 P1,COc1ccc2C3=C(C(=O)N(C)c2c1)C(=C(CC3)P(=O)(c1ccc(Cl)cc1)c1ccc(Cl)cc1)c1ccccc1,5.9399732499999995
2204,BOGYEC,C14 H14 N2 O4 S1,COC(=O)C1CSC(CN2C(=O)c3ccccc3C2=O)N1,6.211270750000001
2205,BOGZOM,C13 H9 As1 O4,O=C1C=CC=CC=C1O[As]1Oc2ccccc2O1,4.67627652
2207,BOHCEI,C22 H16 N2,N1c2ccc3NC(=Cc3c2C=C1c1ccccc1)c1ccccc1,5.56527247
2208,BOHHUD,C26 H16 N4 S4,S1C(SC(=C1c1ccncc1)c1ccncc1)=C1SC(=C(S1)c1ccncc1)c1ccncc1,4.93614525
2209,BOHJAJ,C21 H27 B1 N2,Cc1ccc(cc1)N1C(=CC(=[N+](c2ccc(C)cc2)[B-]1(C)C)C)C,6.1867805
2210,BOHJOA,C23 H37 B1 N2 O2,CCCC[B-]1(CCCC)N2C=C(C=C2C=C2CC(C)(C)C(=[N+]12)C)C(=O)OCC,5.35411213
2211,BOHJUG,C23 H36 B1 Br1 N2 O2,CCCC[B-]1(CCCC)N2C=C(C(=O)OCC)C(=C2C=C2CC(C)(C)C(=[N+]12)C)Br,5.29152594
2212,BOHKAK,C11 H18 N2 S2,CN(C)N=CC=C1SSC(=C1)C(C)(C)C,5.56064653
2213,BOHKAN,C15 H18 B1 Br1 F2 N2 O2,CCOC(=O)C1=CN2C(=C1Br)C=C1CC(C)(C)C(=[N+]1[B-]2(F)F)C,5.21506194
2214,BOHMAP,C23 H20 N4 S1,CN(C)c1ccc(cc1)C=CC1=CC=C(C=Cc2ccccn2)C2=NSN=C12,4.458585439999999
2215,BOHMET,C20 H14 N4 S1,S1N=C2C(=CC=C(C=Cc3ccccn3)C2=N1)C=Cc1ccccn1,4.802537350000001
2216,BOHMIX,C16 H14 Br1 N3 S1,CN(C)c1ccc(cc1)C=CC1=CC=C(Br)C2=NSN=C12,4.50729382
2217,BOHMOD,C24 H20 N2 O2 S1,COc1ccc(cc1)C=CC1=CC=C(C=Cc2ccc(OC)cc2)C2=NSN=C12,4.44389129
2218,BOHXEB,C18 H14,C1c2ccccc2C=C1C1=Cc2ccccc2C1,5.58785792
2219,BOHYOM,C50 H36 N4,N1C2=CC=C1C(=C1C=CC(=N1)C(=C1NC(=C(c3ccccc3)C3=CC=C(C2c2ccccc2)N3c2ccccc2)C=C1)c1ccccc1)c1ccccc1,3.6640129999999997
2220,BOJBEK,C27 H27 B2 Br4 N1 P2,CC(C)N1[P+](c2ccccc2)(c2ccccc2)[B-](Br)(Br)[B-](Br)(Br)[P+]1(c1ccccc1)c1ccccc1,6.236033109999999
2221,BOJBOU,C30 H24 B2 Br4 F1 N1 P2,Fc1ccc(cc1)N1[P+](c2ccccc2)(c2ccccc2)[B-](Br)(Br)[B-](Br)(Br)[P+]1(c1ccccc1)c1ccccc1,6.1729027
2222,BOJFIQ,C16 H11 Cl1 O3,Clc1ccc(cc1)C=CC(=O)c1ccc2OCOc2c1,5.99874984
2223,BOJFOW,C18 H16 O5,COc1ccc(C=CC(=O)c2ccc3OCOc3c2)cc1OC,5.80065095
2224,BOJHOX,C20 H26 O5,CC(O)CC1=C(O)C2=CC3OCC4(C)CCCC(C)(C34)C2=C(O)C1=O,5.936979989999999
2225,BOJQAS,C12 H16 N6 S2,CNC(=S)NN=CC(=NNC(=S)NC)c1ccccc1,5.3511188700000005
2226,BOJQEW,C14 H20 N6 S2,CCNC(=S)NN=CC(=NNC(=S)NCC)c1ccccc1,5.27356642
2227,BOJSOI,C23 H17 N3 O1,O=C1N(N=Cc2ccccc2)C(=NC1=Cc1ccccc1)c1ccccc1,5.61534142
2228,BOJWEE,C14 H3 F7 O2,COc1c(F)c(F)c(F)c2c3c(F)c(F)c(F)c(F)c3C(=O)c12,6.02813813
2229,BOJWEF,C41 H55 B1 Cl1 N3,CC(C)c1cccc(C(C)C)c1N1C(=[B-](Cl)C2=[N+](C=CN2c2c(C)cc(C)cc2C)c2c(C)cc(C)cc2C)C(C)(C)CC1(C)C,4.6207653
2230,BOJWIH,C9 H9 F3 N2 O3,CN1C=C[N+]2=C1C(O)(C(C2)C(=O)[O-])C(F)(F)F,5.89670714
2231,BOJWUV,C41 H57 B1 Cl1 N3,CC(C)c1cccc(C(C)C)c1N1C(=[B-](Cl)C2=[N+](CCN2c2c(C)cc(C)cc2C)c2c(C)cc(C)cc2C)C(C)(C)CC1(C)C,4.57532228
2232,BOJXAC,C27 H43 B1 Cl1 N3,CC(C)c1cccc(C(C)C)c1N1C(=[B-](Cl)C2=[N+](C)C(=C(C)N2C)C)C(C)(C)CC1(C)C,5.065671439999999
2233,BOJXIJ,C9 H6 I1 N1 O1,Ic1cccc2ccc[n+]([O-])c12,5.63466151
2234,BOJXOP,C20 H16 N2 O3 S1,Cc1ccc(cc1)S(=O)(=O)Nc1cccc2c3ccccc3c[n+]([O-])c12,5.8104470500000005
2235,BOJXUV,C26 H20 N2 O3 S1,Cc1ccc(cc1)S(=O)(=O)Nc1cccc2ccc([n+]([O-])c12)c1cccc2ccccc12,5.77153476
2236,BOKFUE,C10 H14 N6 O1,CCCCN1C=CN(C)C1=C1N=NC(=O)N=N1,6.24419652
2237,BOKGEP,C21 H20 N6 O1,CC(N1C=CN(C(C)c2ccccc2)C1=C1N=NC(=O)N=N1)c1ccccc1,6.06024756
2238,BOKGIT,C22 H24 N6 O1,CC(N1CCN(C1=C1N=NC(=O)N=N1)c1c(C)cc(C)cc1C)c1ccccc1,5.83520941
2239,BOKGOZ,C22 H15 N7 O1,O=C1N=NC(N=N1)=C1N(N=C(N1c1ccccc1)c1ccccc1)c1ccccc1,5.513026610000001
2241,BOKLAR,C22 H23 N3 O2,CCN(CC)c1ccc(C=NN=Cc2c(O)ccc3ccccc23)c(O)c1,5.25479057
2242,BOKLIZ,C16 H20 N6 O2,CCN(CC)c1ccc(C=NNC(=O)c2nccnc2N)c(O)c1,5.54785718
2243,BOKMOG,C17 H17 N3 S1,CC(C=NNC(=S)Nc1ccccc1)=Cc1ccccc1,5.66513825
2244,BOKTIF,C7 H6 O4 S5,OC(=O)CSC1=C(SCC(O)=O)SC(=S)S1,6.121201070000001
2245,BOKVIJ,C23 H21 B1 F3 N3 O3,CC1=CC(=C2N1[B-]1(OC(=O)CN1C(=O)C(F)(F)F)[N+]1=C(C)C=C(C)C1=C2c1ccccc1)C,4.775325969999999
2246,BOKVUV,C29 H28 B1 N3 O4,CC1=CC(=C2N1[B-]1(OC(=O)CN1C(=O)OCc1ccccc1)[N+]1=C(C)C=C(C)C1=C2c1ccccc1)C,4.73614157
2247,BOKXEG,C12 H6 N4 O2 S1,O=S1(=O)N=C2c3ncccc3c3cccnc3C2=N1,5.74840509
2248,BOKXOO,C28 H18 O2,O=C1c2cccc3c4ccc(CCc5ccc(cc5)c5cccc1c5C(=O)c23)cc4,5.9995661700000005
2249,BOLBOT01,C8 H9 N3 S1,NC(=S)NN=Cc1ccccc1,5.8705842100000005
2250,BOLCOU,C25 H26 O10,CC1OC(CCC1O)OC12C(=O)C(O)C(C)(O)CC1(O)C=CC1=C2C(=O)c2cccc(O)c2C1=O,5.617790439999999
2251,BOLDAH,C21 H22 O3,Cc1cc(C)c(c(C)c1)C(=O)C(=O)C(=O)c1c(C)cc(C)cc1C,6.55549478
2252,BOLDEL,C22 H22 O4,Cc1cc(C)c(c(C)c1)C(=O)C(=O)C(=O)C(=O)c1c(C)cc(C)cc1C,6.441751180000001
2253,BOLGOZ,C10 H13 N1 O2,O=C([O-])CC[NH2+]Cc1ccccc1,5.6401037700000005
2254,BOLJUH,C12 H13 Cl1 N2 O1,CC1(C)CC(=O)[N-][N+]1=Cc1ccc(Cl)cc1,5.77153477
2255,BOLKOF,C20 H9 F5,Fc1c(F)c(F)c(c(F)c1F)c1c2ccccc2cc2ccccc12,5.478468149999999
2256,BOLPID,C38 H40 N2 O2,COc1cc(C#Cc2ccc(cc2)C=NC2CCCCC2)c(OC)cc1C#Cc1ccc(cc1)C=NC1CCCCC1,5.31084602
2257,BOLPOJ,C38 H46 O2,CCCCCCCCOc1cc(C#Cc2ccccc2)c(OCCCCCCCC)cc1C#Cc1ccccc1,5.58377621
2258,BOLRAV,C22 H36 O2,CC(C)(C)CC(C)(C)C1=CC(=O)C(=CC1=O)C(C)(C)CC(C)(C)C,6.56420241
2259,BOLREZ,C27 H19 Br1 N2 O2,Brc1ccc(cc1)C(=O)OC(c1ccccc1)=C(N=Nc1ccccc1)c1ccccc1,6.191134320000001
2260,BOMJEV,C34 H43 B1 Br1 N1,CCC1(CC)CC(C)(C)[N+](=C1[B-]1(Br)c2ccccc2c2ccccc12)c1c(cccc1C(C)C)C(C)C,5.8205152700000005
2261,BOMLUM,C21 H17 N3 O1,COc1ccc2c(CCC3=C(N4N=CC=C4N=C23)c2ccccc2)c1,5.90595901
2262,BOMLUN,C41 H29 N1,c1ccc(cc1)c1cc(nc2ccccc12)c1ccc(cc1)C(c1ccccc1)=C(c1ccccc1)c1ccccc1,5.874938030000001
2263,BOMMAU,C48 H32 F3 N1,FC(F)(F)c1ccc(cc1)c1ccc(cc1)c1cc(nc2ccccc12)c1ccc(cc1)C(c1ccccc1)=C(c1ccccc1)c1ccccc1,5.69724769
2264,BOMMOI,C46 H64 N2 O6 S2,CCCCC(CC)COc1c2C=C(c3ccc(cc3)N(CC)CC)S(=O)(=O)c2c(OCC(CC)CCCC)c2C=C(c3ccc(cc3)N(CC)CC)S(=O)(=O)c12,4.3608965699999995
2265,BOMPEB,C25 H25 N3 O5 S1,O=C1N(CCN2CCOCC2)C(=O)c2ccc(c3cccc1c23)S(=O)(=O)NCc1ccccc1,5.4479914
2266,BOMPUR,C28 H24 N4,C1Nc2ccc(C=Cc3ccncc3)cc2CNc2ccc(C=Cc3ccncc3)cc12,5.847998759999999
2267,BOMQOM,C19 H22 N4 O1 S1,CSc1cc(nc(N2CCOCC2)c1C#N)c1ccc(cc1)N(C)C,5.68663525
2268,BOMQUS,C12 H10 N2 O3,Oc1ccc(cc1)N=Nc1cc(O)cc(O)c1,5.5002372600000005
2269,BOMRAZ,C14 H14 N2 O3,COc1cc(OC)cc(c1)N=Nc1ccc(O)cc1,6.086914719999999
2270,BOMRUT,C24 H21 N1 O2 S1,CCN1c2ccccc2Sc2cc(C=Cc3ccc(cc3)C(=O)OC)ccc12,5.3209142300000005
2271,BOMSOO,C34 H26 B1 F2 N1 O2,C[N+]1=CC=CC1=C1O[B-](F)(F)OC(=C1)c1ccc(cc1)C(c1ccccc1)=C(c1ccccc1)c1ccccc1,5.21370138
2272,BOMSUU,C36 H28 B1 F2 N1 O2,F[B-]1(F)OC(=CC(O1)=C1C=CC=[N+]1CC=C)c1ccc(cc1)C(c1ccccc1)=C(c1ccccc1)c1ccccc1,5.19410918
2273,BOMVEH,C33 H23 B1 F2 O2 S1,F[B-]1(F)OC(=CC(=[O+]1)C1=CSC=C1)c1ccc(cc1)C(c1ccccc1)=C(c1ccccc1)c1ccccc1,4.999547769999999
2274,BOMVIL,C29 H24 N4,C1N2Cc3cc(C=Cc4ccncc4)ccc3N1Cc1cc(C=Cc3ccncc3)ccc21,5.97398748
2275,BOMYIM,C25 H22 N4,Cc1ccnc(c1)C1=CC(C)(Nc2c1ccc1cccnc21)c1cc(C)ccn1,5.64119224
2276,BOMYOS,C23 H16 Br2 N4,CC1(Nc2c(ccc3cccnc23)C(=C1)c1cccc(Br)n1)c1cccc(Br)n1,5.82486909
2277,BOMZOS,C12 H8 S7,C1CSC(S1)=C1C2=C(SSSSS2)c2ccccc12,5.23710317
2278,BONDIU,C21 H19 N3 O2,CC1CC(=CC2=Cc3ccccc3N2c2ncccn2)C(=O)CCC1=O,5.89670714
2279,BONDUF,C31 H23 N1 O1,CCc1c2C(=O)N(c3ccccc3)c3cccc(c(c4ccccc4)c1c1ccccc1)c23,5.75738485
2280,BONFAN,C24 H17 N1 O1,CN1C(=O)c2cc(c3ccccc3)c(c3ccccc3)c3cccc1c23,5.77643282
2281,BONGAO,C4 H9 N1 O3,C[N+](C)(O)CC(=O)[O-],7.24149379
2282,BONJIY,C16 H12 S4,Cc1ccc2SC(Sc2c1)=C1Sc2ccc(C)cc2S1,5.79466445
2283,BONKAS,C24 H17 N3 O4,COc1cccc2C=C(C(=O)Nc3cccc(c3)C3=CN4C=CC=CC4=N3)C(=O)Oc12,5.3181931
2284,BONKEW,C38 H28 O1,Cc1ccc(cc1)c1ccc2c(c1)C(c1ccccc1C(=O)c1ccc(C)cc1)c1cccc3cccc2c13,5.64527394
2285,BONPEA,C16 H17 N3 O1,COC1=CC(=NC1=CC1=C(C)C=C(C)N1)C1=CC=CN1,4.809068079999999
2286,BONPOL,C15 H20 N4 O2,COc1ccc(cc1)C(=O)C1CN2CN3CN(C2)CN1C3,6.53100453
2287,BONQAZ,C27 H25 N3 O4 S1,Cc1ccc(cc1)S(=O)(=O)NCC1C(C(=O)c2ccccc2)C21C(=NN(C2=O)c1ccccc1)C,6.0795676499999995
2288,BONRAA,C24 H18 N2 O4,COC(=O)c1ccc(NC(=O)c2ccccn2)c2c(Oc3ccccc3)cccc12,5.8504477800000005
2289,BONSII,C38 H36 N4 O5,CCN(CC)c1ccc2c(Oc3cc(ccc3C32N(N=Cc2c(O)ccc4C=CC(=O)Oc24)C(=O)c2ccccc32)N(CC)CC)c1,5.43737896
2290,BONVIL,C15 H13 N3 O1,NC1=[N+](Cc2ccccc12)[N-]C(=O)c1ccccc1,6.1089559499999995
2291,BONVUX,C40 H44 O8,COC(=O)C1=C(C2C3CC4=CCC(=CC1C24C12C4=CC=C(C3C1=C(C(=O)OC)C(=C2C=C4)C(=O)OC)C(C)(C)C)C(C)(C)C)C(=O)OC,5.667859389999999
2292,BONZEL,C12 H17 N3 S2,S=C(NN=CC1=CC=CS1)NC1CCCCC1,5.8001067200000005
2293,BONZEM,C27 H23 N1 O2 S1,CC1(C)c2ccccc2N(c2ccc(cc2)S(=O)(=O)c2ccccc2)c2ccccc12,5.943782840000001
2294,BOPCAM,C18 H12 Cl1 N3 O1,NC1=C2C(=CC(=NC2=NO1)c1ccccc1)c1ccc(Cl)cc1,5.3100296799999995
2295,BOPCOB,C18 H16 N2 O2,CCOC(=O)Nc1ccc2CCc3cc4cccnc4c1c23,5.892625430000001
2296,BOPFES,C8 H9 N1 Se1,Cc1ccc(cc1)C(N)=[Se],5.56010231
2297,BOPFET,C23 H22 N4 O2,Cc1cccc(c1)N1N=C(C)C(=C1O)C=C1C(=NN(c2cccc(C)c2)C1=O)C,5.13097876
2298,BOPFIW,C8 H9 N1 O1 Se1,COc1ccc(cc1)C(N)=[Se],5.57425222
2299,BOPFOC,C7 H6 F1 N1 Se1,NC(=[Se])c1ccc(F)cc1,5.8088143699999994
2300,BOPFUI,C8 H9 N1 O1 Se1,COc1ccccc1C(N)=[Se],5.44282124
2301,BOPGAP,C8 H6 N2 Se1,NC(=[Se])c1ccc(cc1)C#N,5.13533258
2302,BOPGET,C9 H11 N1 O2 Se1,COc1cccc(C(N)=[Se])c1OC,5.8232364
2303,BOPGIX,C9 H11 N1 O2 Se1,COc1ccc(cc1OC)C(N)=[Se],5.72337062
2304,BOPGOD,C7 H6 Cl1 N1 Se1,NC(=[Se])c1ccc(Cl)cc1,5.46105286
2305,BOPGOE,C17 H14 O2 S9,O=C(OCCC1CSC2=C(S1)SC(S2)=C1SC2=C(SCCS2)S1)C1=CC=CS1,5.257511699999999
2306,BOPGUJ,C7 H6 Br1 N1 Se1,NC(=[Se])c1ccc(Br)cc1,5.53670052
2307,BOPGUK,C16 H12 O2 S9,O=C(OCC1CSC2=C(S1)SC(S2)=C1SC2=C(SCCS2)S1)C1=CC=CS1,4.95056728
2308,BOPJAT,C19 H15 N1 O2,COc1ccc2cc(C=CC(=O)c3cccnc3)ccc2c1,5.7486772099999985
2309,BOPOMC,C26 H20 Cl1 O1 P1,ClC(C(=O)c1ccccc1)=P(c1ccccc1)(c1ccccc1)c1ccccc1,5.70840435
2310,BOPOMI,C26 H20 I1 O1 P1,IC(C(=O)c1ccccc1)=P(c1ccccc1)(c1ccccc1)c1ccccc1,5.6561585
2311,BOPQEC,C24 H24 O2,COC1=C(CCc2ccccc12)C=CC1=C(OC)c2ccccc2CC1,5.1611834000000005
2312,BOPRAZ,C18 H14 O4,COC(=O)c1cccc2cc3cccc(C(=O)OC)c3cc12,5.47438644
2313,BOPRUV,C18 H14 N2 O2 S2,CSC1=C(N=C(NC(=O)C(=O)c2ccccc2)S1)c1ccccc1,5.51302661
2314,BOPRUW,C23 H20 N2 O3,COC(=O)C=CC(=O)Nc1ccc(cc1)N(c1ccccc1)c1ccccc1,5.80663746
2315,BOPSEF,C14 H10 N2 S4,CSC1=C(SC)SC(S1)=C1C=CC(C=C1)=C(C#N)C#N,3.89694246
2316,BOPYUD,C46 H42 O8,COc1ccc(OCc2ccc(cc2)c2c3cc(OC)c(OC)cc3c(c3ccc(COc4ccc(OC)cc4)cc3)c3cc(OC)c(OC)cc23)cc1,5.502142060000001
2317,BOQBER,C18 H16 O1 S1,CC1(C)CC(=O)C2=C(C1)Sc1cccc3cccc2c13,5.56744939
2318,BOQBUH,C25 H36 N1 O1 P1,COc1cccc(C=Pc2c(cc(cc2C(C)(C)C)C(C)(C)C)C(C)(C)C)n1,5.66758727
2319,BOQCEP,C16 H11 N1 O1 S2,O=C1N(C(=S)SC1=Cc1ccccc1)c1ccccc1,5.71602355
2320,BOQCIT,C29 H21 N3 O1 S2,O=C1N(c2ccccc2)C2(SC1=Cc1ccccc1)SC(=NN2c1ccccc1)c1ccccc1,5.9568443
2321,BOQCOB,C18 H14 Cl2 N2 O2,Cc1ccc(cc1)C(O)=C1C(=NN(c2ccc(Cl)c(Cl)c2)C1=O)C,5.28363464
2322,BOQDES,C14 H8 Cl2 N4,Clc1ccccc1c1nnc(nn1)c1ccccc1Cl,6.323109540000001
2323,BOQHOH,C17 H16 O4,CC(=O)OC1=C(CC=C(C)C)C(=O)c2ccccc2C1=O,5.50350263
2324,BOQKIB,C17 H10 Cl1 N3 O1 S1,Clc1ccccc1C1=NN2C(=O)C(SC2=N1)=Cc1ccccc1,5.87521014
2325,BOQPII,C18 H18 O4,CCOC(=O)C1=CC(=C(C)C1=C(C)O)C(=O)c1ccccc1,5.6907169500000006
2326,BOQRAA,C20 H13 Br1 O5,COC1(OC)C(=O)C2=C(C(=O)C3=C(C=CC=C3)C2=O)C2=CC(=CC=C12)Br,5.42758287
2327,BOQSEF,C24 H18 O4 S3,COC(=O)C1=CC=C(S1)c1ccc(Sc2ccc(cc2)C2=CC=C(S2)C(=O)OC)cc1,5.77099054
2328,BOQTAF,C16 H11 N3 O2,O=Nc1c(NC(=O)c2ccccc2)ccc2ncccc12,5.52472751
2329,BOQTIN,C17 H13 N3 O3,COc1ccc(cc1)C(=O)Nc1c(ccc2ncccc12)N=O,5.97562016
2330,BOQXOU,C30 H28 N2 O2,CN1CC(c2ccccc2)C2(CCCC(=Cc3ccccc3)C2=O)C21C(=O)Nc1ccccc21,6.37236215
2331,BOQYEN,C12 H11 N3 O2 S1,CNC(=S)NN=CC1=COc2ccccc2C1=O,5.6901727300000005
2332,BORCIX,C39 H39 N1 O9 S1,CCOC(=O)C1(CC(c2ccc(OC)c(OC)c2)C2(Oc3ccccc3C2=NS(=O)(=O)c2ccc(C)cc2)C1c1ccccc1)C(=O)OCC,5.48010083
2333,BORCUJ,C33 H25 Cl1 N2 O5,CCOC(=O)C1=CC(C(C2=C(C#N)C(=O)Oc3ccccc23)C21C(=O)N(CC)c1ccc(Cl)cc21)c1ccccc1,5.53533995
2334,BORFEW,C26 H16 N4 S8,S(c1ccncc1)C1=C(Sc2ccncc2)SC(S1)=C1SC(=C(Sc2ccncc2)S1)Sc1ccncc1,5.478196039999999
2335,BORGOG,C26 H16 O2,Oc1ccc2ccc3ccc4ccc5ccc6ccccc6c5c4c3c2c1O,5.56554459
2336,BORHIC,C42 H34 O2 P2 S2,OC1=C(C(CC(c2ccccc2)P(=S)(c2ccccc2)c2ccccc2)P(=S)(c2ccccc2)c2ccccc2)C(=O)c2ccccc12,5.0844473
2337,BORHOI,C44 H38 O2 P2 S2,Cc1ccc(cc1)P(=S)(C(CC(c1ccccc1)P(=S)(c1ccccc1)c1ccccc1)C1=C(O)c2ccccc2C1=O)c1ccc(C)cc1,5.01941208
2338,BORYOZ,C17 H19 N3 S1,CCc1ccc(NC(=S)NN=Cc2cccc(C)c2)cc1,6.0844657
2339,BOSBES,C16 H8 Br2 N2 O2,Brc1ccc2NC(C(=O)c2c1)=C1Nc2ccc(Br)cc2C1=O,4.284160460000001
2340,BOSBIW,C28 H18 N2 O2,O=C1C(Nc2ccc(cc12)c1ccccc1)=C1Nc2ccc(cc2C1=O)c1ccccc1,4.24225493
2341,BOSCOE,C21 H23 N3 S1,S=C(NN=Cc1ccc2c(Cc3ccccc23)c1)NC1CCCCC1,5.692349630000001
2342,BOSDAP,C12 H11 N1 O3,OCCNC1=CC(=O)c2ccccc2C1=O,5.64255281
2343,BOSDUJ,C21 H19 N3 O1,CCC1=C(C#N)C(=O)N(N=C1c1ccc(C)cc1)c1ccc(C)cc1,5.94215015
2344,BOSKAW,C30 H20 F2 N2 O4,Fc1ccc(CCN2C(=O)c3ccc4C(=O)N(CCc5ccc(F)cc5)C(=O)c5ccc(C2=O)c3c45)cc1,5.2507088600000005
2345,BOSKEA,C30 H18 F4 N2 O4,Fc1cc(F)cc(CCN2C(=O)c3ccc4C(=O)N(CCc5cc(F)cc(F)c5)C(=O)c5ccc(C2=O)c3c45)c1,5.54431971
2346,BOSMUS,C14 H10 N2 O2,Nc1cccc2C(=O)c3c(N)cccc3C(=O)c12,5.25315788
2347,BOSSAF,C29 H34 O7,COc1cc(OC)c2c3c1C(=O)C1=C(C3(CC32C(=CCCC3(C)C)C)OC)C(OC)(OC)C=CC1=O,5.88500625
2348,BOSSUA,C37 H44 O1 P2,Cc1cc(C)c(P(C(=O)P(c2c(C)cc(C)cc2C)c2c(C)cc(C)cc2C)c2c(C)cc(C)cc2C)c(C)c1,5.975892269999999
2349,BOSXOW,C11 H12 N2 O2,COc1ccc(cc1)C=[N+]1CCC(=O)[N-]1,5.74078591
2350,BOSXUC,C18 H14 N2 O1,O=C1CC[N+](=Cc2c3ccccc3cc3ccccc23)[N-]1,5.2828183
2351,BOTCAO,C26 H40,CC(C)(C)C1=CC(=C2C=C(C=C2C(C)(C)C)C(C)(C)C)C(=C1)C(C)(C)C,5.0158746
2352,BOTDAS,C16 H19 N1 O2 S2,CSC(SC)=C(OCCCC#N)C(=O)c1ccc(C)cc1,6.06051968
2353,BOTDIX,C22 H19 N3 O1,C[N+]1=C(C(c2ccccc2)c2ccccc2)N(N=C1[O-])c1ccccc1,6.27304059
2355,BOTMAB,C34 H27 N1 O3,COc1ccccc1C1CC(c2ccccc2)C2=C(N(C)c3ccccc23)C21C(=O)c1ccccc1C2=O,5.22485804