,ID,formula,smiles,HOMO_LUMO_gap
6535,ELIBAC,C15 H17 Cl1 N2 O2,CN(C)CCCNC1=C(Cl)C(=O)c2ccccc2C1=O,5.16526511
6536,ELIBIK,C18 H16 Cl1 N1 O1,CCN1c2ccc(C)cc2c2cc(ccc12)C(Cl)=CC=O,5.784596240000001
6537,ELIBIM,C31 H28 Br2 N2 O3,CC1(C)CC(=O)C2=C(C1)N=C(c1ccc(Br)cc1)C1=C(c3cc(Br)ccc3O)C3=C(CC(C)(C)CC3=O)N21,5.45969229
6538,ELIBOS,C27 H20 Br1 Cl1 N2 O3,Oc1ccc(Cl)cc1C1=C2N(C3=C1C(=O)CCC3)C1=C(CCCC1=O)N=C2c1ccc(Br)cc1,5.59085117
6539,ELIFAG,C15 H13 Cl1 N2 O3,COc1ccc(NC(=NO)C(=O)c2ccccc2)cc1Cl,6.26106759
6540,ELIHAI,C29 H22 N2 O4,O=C1Nc2ccccc2C21C1CCCN1C1(C2C(=O)c2ccccc2)C(=O)c2ccccc2C1=O,6.37399483
6541,ELIJAK,C38 H37 N1 O4,COc1ccc(cc1)C1C(N(C2CCCCC2)C(C(=O)c2ccccc2)C21COc1ccccc1C2=O)c1ccccc1,6.14052115
6542,ELINUI,C26 H14 Cl2,Clc1cccc2c3ccccc3C(c12)=C1c2ccccc2c2cccc(Cl)c12,4.59300969
6543,ELIPIA,C14 H15 N3 O1,CCN(CC)c1ccc2C=C(C#N)C(=N)Oc2c1,5.50731222
6544,ELIPOG,C17 H19 N3 O3,CCOC(=O)N=C1Oc2cc(ccc2C=C1C#N)N(CC)CC,5.53942166
6545,ELIPUM,C14 H14 N2 O2,CCN(CC)c1ccc2C=C(C#N)C(=O)Oc2c1,5.60554532
6546,ELIXEE,C30 H22 N4 O2,O(c1ccc(Oc2ccc(cc2)N=Cc2ccccn2)cc1)c1ccc(cc1)N=Cc1ccccn1,6.03521309
6547,ELLIPT,C17 H14 N2,Cc1c2Nc3ccccc3c2c(C)c2cnccc12,5.77724916
6548,ELLIPU01,C18 H16 N2 O1,COc1ccc2Nc3c(C)c4ccncc4c(C)c3c2c1,5.55166678
6549,ELOBUE,C30 H18 N2,c1ccc2c(c1)N(c1cc3c4ccccc4N4c5ccccc5c(c1)c34)c1ccccc21,5.62976345
6550,ELOCIR03,C32 H24 O2,Cc1cccc(c1)C1c2ccccc2C(=O)C1=C1C(c2cccc(C)c2)c2ccccc2C1=O,5.71303029
6551,ELODAM,C34 H23 N3 S1,S1C(=CC=C1c1ccc2ccc3cccnc3c2n1)c1ccc(cc1)N(c1ccccc1)c1ccccc1,5.16390454
6552,ELONAW,C11 H14 F1 N3 S1,CCNC(=S)NN=C(C)c1cccc(F)c1,5.9707221100000005
6553,ELONEA,C15 H14 F1 N3 S1,CC(=NNC(=S)Nc1ccccc1)c1cccc(F)c1,5.96201447
6554,ELOPAY,C15 H12 Br1 N1 O2,Nc1ccccc1C(=O)C=Cc1cc(Br)ccc1O,5.47520278
6555,ELOQUS,C23 H23 N9 O2,CN1N=C(N(C=C(C#N)N2N(C)C(=O)N(C)N=C2c2ccccc2)N(C)C1=O)c1ccccc1,6.16664408
6556,ELOSEF,C10 H5 Br1 O3,OC1=C(Br)C(=O)c2ccccc2C1=O,5.99548447
6557,ELUCIX,C20 H16 N2 S8,C1CSC2=C(S1)SC(S2)=C1SC(=C(SCc2ccccn2)S1)SCc1ccccn1,5.38268408
6558,ELUPOS,C27 H21 N3 O2,CC1(C)CC(=O)C2=C(C1)NC1=Nc3ccccc3N1C12C(=O)c2cccc3cccc1c23,5.753575259999999
6559,ELUXIT,C26 H20 Cl1 N3 O4,COC(=O)C1=C(N(C(=C(C#N)C1c1ccc(Cl)cc1)N)c1cccc2ccccc12)C(=O)OC,5.70976492
6560,ELUYAM,C28 H25 Cl1 N2 O6,CCOC(=O)C1=C(N)N(c2cccc3ccccc23)C(=C(C1c1ccc(Cl)cc1)C(=O)OC)C(=O)OC,5.763643470000001
6561,EMAJIN,C18 H13 N3 O1 S1,COc1ccc(cc1)C1=CC=C(c2ccncc2)C2=NSN=C12,5.42268481
6562,EMAKUY,C16 H14 S12,CSC1=C(SC)SC(S1)=C1SC=C(S1)C1=CSC(S1)=C1SC(=C(SC)S1)SC,4.92253956
6563,EMALAF,C16 H10 O4 S8,C1COC2=C(O1)SC(S2)=C1SC=C(S1)C1=CSC(S1)=C1SC2=C(OCCO2)S1,5.1802313700000004
6564,EMALEL02,C41 H41 N5 O2 S1,CCN(CC)c1ccc2c(Oc3cc(ccc3C32N(C(=O)c2ccccc32)c2ccccc2NC(=S)Nc2ccccc2)N(CC)CC)c1,6.01262764
6565,EMAVOD,C12 H17 N3 O1 S1,CN(C)C(=S)NN=C(C)c1cc(C)ccc1O,6.21508035
6566,EMAVUK,C20 H16 N2 O1 S1,O=C(NC(=S)Nc1ccccc1c1ccccc1)c1ccccc1,6.27331271
6567,EMAXEW01,C14 H15 N1 O1 S1,CC1(C)CC(=O)C2=C(C1)Nc1ccccc1S2,5.49588344
6568,EMAYOI,C19 H17 N1 O1,CN(C)c1ccc(C=CC(=O)C#Cc2ccccc2)cc1,5.41234449
6569,EMAZUP,C13 H13 N1 O3,CCCC1=C(O)C(=NO)c2ccccc2C1=O,6.1116770800000015
6570,EMCORR,C29 H34 N4,CCC1=C(C)C2=CC3=C(C)C(=C(N3)C3=NC(=CC4=C(C)C(=C(N4)C=C1N2)CC)C(=C3C)C)C,4.159260209999999
6571,EMEBAA,C20 H18 N4 S2,Cc1ccccc1CSC(=S)NN=C(c1ccccn1)c1ccccn1,5.8074538
6572,EMEBII,C30 H23 N5 O1 S1,ON=C(Sc1ccccc1N=C(c1ccccc1)C(=Cc1ccccc1)N1C=NC=N1)c1ccccc1,5.948953000000001
6573,EMEFEH,C35 H36 Cl1 N3,CCC1=C(C)C2=CC3=C(Cl)C(=CC4=C(C)C(=C(N4)C=C4N=C(C=C1N2)C(=C4CC)CC)CC)C1=C3C=CC=C1,4.17014476
6574,EMELAK,C19 H14 N4 O2 S1,CC(C)Oc1ccccc1Oc1nc(C#N)c(nc1C1=CC=CS1)C#N,5.92772812
6575,EMELEO,C16 H8 N4 O1 S1,N#Cc1nc(Oc2ccccc2)c(nc1C#N)C1=CC=CS1,5.891809089999999
6576,EMETIA01,C19 H19 N3 O3,CN1C(=O)N(C)C(=O)[C-](C2c3cccc4cccc(c34)[N+]2(C)C)C1=O,5.65398159
6577,EMETIB,C10 H5 N1 O2 S2,OC1=C2SSN=C2c2ccccc2C1=O,4.871926380000001
6578,EMEVEY,C24 H19 N3,N#CC(=Cc1cccc2cccc(c3ccccc3N3CCCC3)c12)C#N,5.10349527
6579,EMEVOJ,C12 H7 N1 O3 S2,CC(=O)OC1=C2SSN=C2c2ccccc2C1=O,5.033562010000001
6580,EMEVUO,C19 H15 Br1 N4,Brc1ccc(cc1)N=NC(=NNc1ccccc1)c1ccccc1,4.79301337
6581,EMIDUA,C28 H30 Cl2 N2 O6,CCCC1=C(Cl)c2c(OC)cc(c(O)c2C(=O)N1C)c1cc(OC)c2C(=C(CCC)N(C)C(=O)c2c1O)Cl,5.9807903200000005
6582,EMIFEN,C15 H10 Br1 N3 O1,Brc1ccc(NC(=O)c2cnccn2)c2ccccc12,5.68336988
6583,EMIFIR,C15 H10 Cl1 N3 O1,Clc1ccc(NC(=O)c2cnccn2)c2ccccc12,5.72527541
6584,EMIGIQ,C8 H19 N1 O7 P2,OC(CC[NH+]1CCCCC1)(P(O)(O)=O)P(O)(=O)[O-],6.236305219999999
6585,EMIGIS,C21 H13 N1 S1,S1c2ccccc2C(=C2C1=Nc1ccccc21)c1ccccc1,5.29696821
6586,EMIHIR,C23 H25 N3 O1 S1,CN(C)c1ccc(cc1)C=NC1=C(C(=O)Nc2ccccc2C)C(=C(C)S1)C,5.23547048
6587,EMIHOX,C25 H27 N3 O1 S1,CN(C)c1ccc(cc1)C=NC1=C(C(=O)Nc2ccc(C)cc2)C2=C(CCCC2)S1,5.23329357
6588,EMILIV,C23 H19 Cl1 N2 O1,CN(C)C1=CC2=C(C=C(N2C=C1)C(=O)c1ccc(Cl)cc1)c1ccccc1,5.51411507
6589,EMILOB,C23 H18 Cl2 N2 O1,CN(C)C1=CC2=C(C=C(N2C=C1)C(=O)c1ccc(Cl)cc1Cl)c1ccccc1,5.66894785
6590,EMIMEU,C11 H16 N2 O1 S2,CCN(C(C)C)C(=S)NC(=O)C1=CC=CS1,6.1021531
6591,EMIPEX,C46 H42 N6 O4 S1,CCNc1cc2Oc3cc(NCC)c(C)cc3C3(N(CCNC(=O)COc4cccc5ccc(nc45)C4=Nc5ccccc5S4)C(=O)c4ccccc34)c2cc1C,5.18893902
6592,EMITOJ,C16 H28 N2 O4 S2,COC(=O)C(CC(C)C)NC(=S)C(=S)NC(CC(C)C)C(=O)OC,5.99249122
6593,EMIYOO,C22 H21 N3,CN(C)c1ccccc1c1c2ccccc2nc2NC3=C(CCC3)c12,5.92636755
6594,EMIYUU,C14 H11 Cl1 N2,ClC1(Cc2ccc(cc2)c2ccccc2)N=N1,5.923646420000001
6595,EMIZOP,C34 H34 N2 O4,CCCCCOc1ccc(cc1)C(=O)Oc1ccc2ccc3OC4(C=Nc3c2c1)N(C)c1ccccc1C4(C)C,6.01915837
6596,EMODUG,C16 H18 N2 O2,CN(C)c1c(C=O)ccc2ccc(C=O)c(N(C)C)c12,5.74241859
6597,EMOFES,C20 H32 N4,CN(C)Cc1ccc2ccc(CN(C)C)c(N(C)C)c2c1N(C)C,6.38651208
6598,EMOFIW,C24 H23 N5,CN(C)c1cccc2ccc(C=C(C#N)C3=Nc4ccccc4N3)c(N(C)C)c12,4.90022622
6599,EMOGET,C22 H23 N3 O5 S1,OCC1OC(CC1O)N1C=C2C=C(CCCN3C=CC=C3C3=CC=CS3)OC2=NC1=O,5.38241197
6600,EMOKIC,C35 H35 N3 O4 S1,COc1ccc(cc1)C=C1CN(CC=C)CC2(C(C3CSCN3C32C(=O)Nc2ccccc32)c2ccc(OC)cc2)C1=O,6.3261028
6601,EMONIE,C14 H13 Cl1 N4 S1,CC(=NNC(=S)Nc1cccc(Cl)c1)c1ccccn1,5.9745317
6602,EMONOK,C14 H13 Cl1 N4 S1,CC(=NNC(=S)Nc1ccccc1Cl)c1ccccn1,6.0300429300000005
6603,EMONUP,C58 H40 O1,CCCC1(CCC)C2=C(C#Cc3ccccc3C#Cc3ccccc3)c3ccccc3C2=C2c3ccccc3c3c4C(=O)c5ccccc5c4c(c4ccccc4)c1c23,4.42810869
6604,EMONUQ,C15 H16 N4 S1,Cc1ccccc1NC(=S)NN=C(C)c1ccccn1,5.9699057700000004
6605,EMOPAY,C14 H13 Cl1 N4 S1,CC(=NNC(=S)Nc1ccc(Cl)cc1)c1ccccn1,5.97698073
6606,EMOPEB,C54 H31 Cl1,CC12C(=C)C3=C(C#Cc4ccccc4C#Cc4ccccc4)c4ccccc4C3=C3c4ccccc4C(=C13)C1=C(Cl)c3ccccc3C1=C2c1ccccc1,3.92687498
6607,EMOQUU,C16 H8 N4 O3,O=C1NN=C2OC3=NNC(=O)c4cccc(c5cccc1c25)c34,6.00283154
6608,EMOROO,C18 H17 N3 O1,CN1CC(=Cc2cccnc2)C(=O)C(C1)=Cc1cccnc1,6.213991890000001
6609,EMORUU,C23 H28 N3 O4 P1,CCOP(=O)(CCN1CC(=Cc2cccnc2)C(=O)C(C1)=Cc1cccnc1)OCC,6.15603164
6610,EMOSAC,C20 H19 Cl1 I1 N1 O2 S2,CCN(CC)C(=S)SC1C(Oc2ccc(Cl)cc2C1=O)c1ccc(I)cc1,6.21181498
6611,EMOZAI,C16 H12 N4 S1,CC1=Nc2ccc3cnc(Nc4ccccc4)nc3c2S1,5.96310292
6612,EMTDHX10,C19 H23 N1,CCN(CC)C1=C2C=CC3=C2C(=CC=CC=C1C)CC3,5.55384369
6613,EMUCEU,C27 H20 N8 O2,O=C(NCc1ccccc1NC(=O)c1cc(ncn1)c1ccccn1)c1cc(ncn1)c1ccccn1,5.961198120000001
6614,EMUGEA,C20 H15 N1 O3,CN(C)c1ccc(cc1)C#Cc1ccc2C=C(C=O)C(=O)Oc2c1,4.66539197
6615,EMUKON,C23 H12 Br2 O3,Brc1ccc2c3ccc(Br)cc3C3(Cc4cc5C(=O)OC(=O)c5cc4C3)c2c1,5.88092453
6616,EMUKUU,C23 H16 O1,O=C(C=Cc1c2ccccc2cc2ccccc12)c1ccccc1,5.485271
6617,EMULAB,C26 H18 O2,COc1ccc(cc1)C(=O)C=Cc1ccc2ccc3cccc4ccc1c2c34,4.9709758200000005
6618,EMULUV,C9 H6 Br1 N1 O2,CN1C(=O)C(=O)c2cc(Br)ccc12,5.918476249999999
6619,EMUNUV,C20 H36 P6,CC(C)(C)C1=PP2P3C4(P5P4C3(P1C25C(C)(C)C)C(C)(C)C)C(C)(C)C,5.75493582
6620,EMUQIO,C20 H12 N2,C#Cc1ccc(cc1)C1=CC2=CC=CC=CC2C1(C#N)C#N,5.36173131
6621,EMUQOS,C16 H19 Cl1 N4 O1,CN(C)c1ccc(cc1)[N+]([O-])=Nc1ccc(N(C)C)c(Cl)c1,5.615069310000001
6622,EMUQOU,C20 H12 N2,C#Cc1cccc(c1)C1=CC2=CC=CC=CC2C1(C#N)C#N,5.71166972
6623,EMUQUA,C26 H16 N2,C#Cc1ccc(cc1)C1=CC2C(=CC=C1)C=C(c1ccccc1)C2(C#N)C#N,5.73371094
6624,EMUREL,C25 H15 N1,C#Cc1ccc(cc1)C1=CC=CC2=CC(=C(C#N)C2=C1)c1ccccc1,4.943492320000001
6625,EMUVIR,C10 H10 N4 O1,NC1=C(C=NN1Cc1ccccc1)N=O,6.801485700000001
6626,EMUYUH,C14 H18 F3 N1 O2 S1,CC(C)(C)S(=O)NC(CC(=O)c1ccccc1)C(F)(F)F,6.58569941
6627,EMZHFL,C22 H26 N4,CCN1C2C3N(CC)c4ccccc4NC3(C)CC2=Nc2ccccc12,6.18596417
6628,EMZPPO,C15 H16 N4 O3,CCN1C=C2C(=O)N(CC)C(=O)C2=C(C1=O)C1=NC=CN1C,5.76990208
6629,ENACAY,C16 H13 Cl1 N4 O2 S1,NC1=C2C(=O)N(N=C(C(=O)NC3CC3)C2=CS1)c1ccc(Cl)cc1,6.04256016
6630,ENACEC,C15 H12 Cl1 N3 O3 S1,CCOC(=O)C1=NN(C(=O)C2=C(N)SC=C12)c1ccc(Cl)cc1,5.84582185
6631,ENAKAG,C15 H15 N1 O3,CC1(C)CCC2=C(O1)C(=NO)c1ccccc1C2=O,6.16092969
6632,ENAKUB,C39 H38 N1 O1 P1 S1,CN(C(CP(c1ccccc1)c1ccccc1)c1ccccc1c1c2ccccc2cc2ccccc12)S(=O)C(C)(C)C,5.45942018
6633,ENANEM,C12 H11 N1 O1 S2,Nc1ccc(SSc2ccc(O)cc2)cc1,6.26596564
6634,ENANOW,C14 H13 N1 O1,Nc1ccc(cc1)C=Cc1ccc(O)cc1,5.8899042900000005
6635,ENARAM,C32 H40 N4 O8,Cc1ccc(cc1)N1N=C2CC1COCCOCCOCC1CC(=NN1c1ccc(C)cc1)C(=O)OCCOCCOC2=O,6.07739074
6637,ENEWIF,C22 H15 N5,CN(C)c1ccc(cc1)C(=C(C#N)C#N)C(c1ccccc1)=C(C#N)C#N,5.07138583
6638,ENEXUS,C38 H42 N4,Cc1cc(C)cc(c1)N=C([N-]c1cc(C)cc(C)c1)C1=[N+](C=CN1c1c(C)cc(C)cc1C)c1c(C)cc(C)cc1C,5.8684073
6639,ENEYAZ,C38 H42 N4,Cc1cc(C)c(N2C=C[N+](=C2C(=Nc2c(C)cccc2C)[N-]c2c(C)cccc2C)c2c(C)cc(C)cc2C)c(C)c1,6.02324008
6641,ENEYIH,C41 H48 N4,CCc1cccc(CC)c1[N-]C(=Nc1c(C)cc(C)cc1C)C1=[N+](C=CN1c1c(C)cc(C)cc1C)c1c(C)cc(C)cc1C,6.018069919999999
6642,ENEYON,C34 H50 N4,CCN1C(=C(C)[N+](=C1C(=Nc1c(cccc1C(C)C)C(C)C)[N-]c1c(cccc1C(C)C)C(C)C)CC)C,5.99303544
6643,ENEYUT,C32 H46 N4,CC(C)c1cccc(C(C)C)c1N=C([N-]c1c(cccc1C(C)C)C(C)C)C1=[N+](C)C(=C(C)N1C)C,5.84609396
6644,ENIHAL,C22 H19 N3 O4,COC(=O)c1c(N)c(C#N)c2c(CCC3=C2Nc2c(C)cccc32)c1C(=O)OC,5.20336105
6645,ENIHOY,C27 H23 N3 O3 S1,COc1ccc(cc1)C(=O)C1=CN(N=C(C)c2ccccc2)C(=S)N=C1c1ccc(OC)cc1,5.413160830000001
6646,ENIJER,C21 H23 N1 O5 S1,COC(=O)C1=CSCC(=O)C2=CC=CC=C(C2)C(=C1C(=O)OC)N1CCCC1,5.3516631
6647,ENIKAO,C14 H10 O4 S1,O=C(C1OC1c1ccc2OCOc2c1)C1=CC=CS1,6.25208783
6648,ENILAP,C36 H24,c1ccc(cc1)C(=Cc1ccc(cc1)c1ccc2ccc3cccc4ccc1c2c34)c1ccccc1,5.37179952
6649,ENIREY,C16 H15 N1 O1 S1,O=C1C2CCN(CC2)C1=CC1=CSc2ccccc12,6.11330976
6650,ENIVAY,C17 H12 N2 O3,O=C(C=Cc1ccccc1)c1ccc(cc1)[n+]1cc([O-])on1,5.515203520000002
6651,ENIVEC,C28 H16 Br2,Brc1c2ccccc2c(c2ccccc12)c1c2ccccc2c(Br)c2ccccc12,5.1707073800000005
6652,ENIZOR,C27 H25 N3 O3 S1,CC1(C)OC2(Oc3c(ccc(O)c3C=NNC(=S)NCc3ccccc3)C=C2)c2ccccc12,5.84827088
6653,ENOFAP,C17 H12 Cl2 O7,COC(=O)C1=CC(=O)C=C(OC)C21Oc1c(Cl)c(C)c(Cl)c(O)c1C2=O,6.242563839999999
6654,ENOFAQ03,C26 H12 N4 O2,O=C1N2c3ccccc3N=C2c2ccc3C(=O)N4c5ccccc5N=C4c4ccc1c2c34,4.77287694
6656,ENUGOK,C24 H20 Br2 O2,CCOc1ccc2cc(Br)ccc2c1c1c(OCC)ccc2cc(Br)ccc12,5.8700399800000005
6657,ENUHUS,C23 H21 N3 O2,COc1ccc(NN=C2C(=O)N(Cc3ccccc3)c3cc(C)ccc23)cc1,5.27764813
6658,ENUJUT,C18 H19 N1 O5 S1,CCOC(=O)C1=C(C)C(=C(S1)N=Cc1ccccc1O)C(=O)OCC,5.88364567
6659,ENUNIL,C24 H14 Br1 N1 O3,NC1=C(C(=O)c2ccccc12)C1(c2ccc(Br)cc2)C(=O)c2ccccc2C1=O,5.86078812
6660,EPABAA,C14 H11 F6 N1 O2,CN(C)c1ccc(cc1)C=C(C(=O)C(F)(F)F)C(=O)C(F)(F)F,5.24308967
6661,EPAHIO,C28 H22 F6 S2,CC(C)C12Sc3ccccc3C1=C1C(=C3C(=C(SC23C)c2ccccc2)C)C(F)(F)C(F)(F)C1(F)F,4.55055992
6662,EPANEQ02,C32 H28 N2 O6 S4,CC(C)(C)OC(=O)N1C(=O)C2=C(N(C(=O)OC(C)(C)C)C(=O)C2=C1C1=CC=C(S1)C1=CC=CS1)C1=CC=C(S1)C1=CC=CS1,3.96007286
6663,EPAZAY,C10 H4 N4 S4,S1C=CN=C1C1=NC2=C(S1)N=C(S2)C1=NC=CS1,5.593572310000001
6664,EPEBUY,C26 H19 N1,c1ccc(cc1)N(c1ccccc1)c1c2ccccc2cc2ccccc12,5.16526511
6665,EPECAF,C28 H21 N1,C1Cc2ccccc2N(c2ccccc12)c1c2ccccc2cc2ccccc12,3.7625182099999996
6666,EPEPOG,C32 H18 O2,O1c2ccc(c3ccccc3)c3ccc4Oc5ccc(c6ccccc6)c6ccc1c(c56)c4c23,5.211796580000001
6667,EPETUP,C12 H12 N2 O3 S1,CCNC(=S)NC1=Cc2ccc(O)cc2OC1=O,6.14596343
6668,EPEWIH,C37 H31 N5 O1,CN(C)c1ccc(C=CC2=CC(C=C(O2)C=Cc2ccc(cc2)N(C)C)=C(C#N)C(c2ccccc2)=C(C#N)C#N)cc1,4.27844607
6669,EPIFAM01,C28 H24 N2 O4,COc1ccc(c(O)c1)C(=NN=C(c1ccccc1)c1ccc(OC)cc1O)c1ccccc1,5.8496314499999995
6670,EPIKAQ,C15 H21 N5 S4,CSC(=S)N(C)N=C(C)c1cccc(n1)C(C)=NN(C)C(=S)SC,5.75548005
6671,EPILOG,C22 H10 O1 S3,O=C1c2cc3ccccc3c3SS4=C(c23)c2c(S4)c3ccccc3cc12,4.36443405
6672,EPIPIM,C38 H33 N3,CCN1c2ccccc2C(=C1c1ccccc1)C1(N(CC)c2ccccc2C1=Nc1ccccc1)c1ccccc1,5.867863069999999
6673,EPIREC,C32 H34 N8 O2,CN(C)CCN(Cc1cc(C)cc(N2N=C3C=CC=CC3=N2)c1O)Cc1cc(C)cc(N2N=C3C=CC=CC3=N2)c1O,6.23412831
6674,EPIRIF,C27 H21 N7,CN(C)c1ccc(cc1)C1=CC(C#N)(C#N)C(=C(c2ccc(cc2)N(C)C)C1(C#N)C#N)C#N,5.48227775
6675,EPIROL,C17 H10 N6,CN(C)c1ccc(cc1)C(=C(C#N)C#N)C(C#N)=C(C#N)C#N,4.59219334
6676,EPIUPZ10,C20 H22 N4 O1,CCN(CC)c1ccc(cc1)N=C1C(=NN(c2ccccc2)C1=O)C,4.8153267
6677,EPIZAF,C30 H20 O2 S6,C1CSC2=C(S1)SC(S2)=C1SC2=C(COc3ccc4ccccc4c3c3c(OC2)ccc2ccccc32)S1,5.26785203
6678,EPOBOC,C18 H19 N3,CCN(CC)c1ccc(cc1)C=Nc1ccc(cc1)C#N,5.8289507899999995
6679,EPOCAP,C22 H12 S4,S1c2ccccc2C2=C1C=C(S2)C=CC1=CC2=C(S1)c1ccccc1S2,5.12091055
6680,EPODUJ,C10 H9 N3 O1 S2,CSC(=S)NN=C1C(=O)Nc2ccccc12,5.60418475
6681,EPOFAR,C16 H13 N3 O1 S2,O=C1Nc2ccccc2C1=NNC(=S)SCc1ccccc1,5.45669904
6682,EPOFAS,C33 H30 F6 N2,CC1(C)CCN2CCC(C)(C)c3cc(C=C(C#N)c4ccc(cc4)c4cc(cc(c4)C(F)(F)F)C(F)(F)F)cc1c23,5.076828109999999
6683,EPOHEY,C24 H12 F6 O2 S2,FC(F)(F)C(=O)c1ccc(cc1)C1=CC=C(S1)C1=CC=C(S1)c1ccc(cc1)C(=O)C(F)(F)F,4.78893165
6684,EPOQUW,C33 H26 F6 N4 S2,CC1=C(C=C(S1)c1ccc(cc1)C1=NCCN1)C1=C(C2=C(C)SC(=C2)c2ccc(cc2)C2=NCCN2)C(F)(F)C(F)(F)C1(F)F,5.781058750000001
6685,EPUPEM,C40 H28 O2,O=C(c1ccccc1)c1ccc(cc1)C(c1ccc(cc1)C(=O)c1ccccc1)=C(c1ccccc1)c1ccccc1,5.85725064
6686,EPUVER,C30 H23 N1,N(c1ccccc1)C(c1ccccc1)=C1C=C(C=C1c1ccccc1)c1ccccc1,5.10458373
6687,EPUVOB,C31 H25 N1 O1,COc1ccc(NC(c2ccccc2)=C2C=C(C=C2c2ccccc2)c2ccccc2)cc1,5.05587534
6688,EPUVUI,C32 H25 N1 O5,COC(=O)C12CCN(C)C31C(=O)c1ccccc1C3(O)OC2c1ccc2ccc3cccc4ccc1c2c34,5.67683915
6689,EPYHAT,C24 H14 N6,N1C2=Nc3ccc4ccc5C=CC(=Nc6ccc7ccc(C=C2)c1c7n6)Nc5c4n3,5.08689632
6690,EPZPHV,C19 H22 N2 O3,CCCCC(=O)Oc1ccc(cc1)N=Nc1ccc(OCC)cc1,6.18759685
6691,EQADUX,C16 H15 N3 O3,COC(=O)c1ccccc1NN=Nc1ccc(cc1)C(C)=O,5.93099349
6692,EQAGEJ,C17 H25 N2 P1 S2,CC(NP(=S)([S-])[n+]1ccccc1)C12CC3CC(CC(C3)C1)C2,4.839272719999999
6693,EQAHEL,C14 H10 N2 O2,Nc1ccc(N)c2C(=O)c3ccccc3C(=O)c12,4.54239651
6694,EQAKUE,C37 H20,C1c2ccc3Cc4cc(c5Cc6ccc1c1c2c3c4c5c61)c1ccc2ccc3cccc4ccc1c2c34,5.31683253
6695,EQALOZ,C40 H26 N2 O1,[O-][N+](=Nc1ccc2C3c4ccccc4C(c4ccccc34)c2c1)c1ccc2C3c4ccccc4C(c4ccccc34)c2c1,5.85425738
6696,EQANAM,C23 H26 N2 O4,COc1ccccc1NC(C1C=CC(=O)N1C(=O)OC(C)(C)C)c1ccccc1,6.07004366
6697,EQANIV,C14 H14 N4,CN1CCN(C)C1=C1C=CC(C=C1)=C(C#N)C#N,4.4950487
6698,EQARUL,C18 H14 Br2,Brc1ccc(C=CC=CC=Cc2ccc(Br)cc2)cc1,5.14240755
6699,EQASAS,C18 H14 I2,Ic1ccc(C=CC=CC=Cc2ccc(I)cc2)cc1,5.202816820000001
6700,EQAWIE,C23 H21 Cl1 N2 O1,COc1ccc(cc1)C1C(C)C(=NN1c1ccccc1)c1ccc(Cl)cc1,5.852624690000001
6701,EQAYOL,C21 H21 N1 O13,COC(=O)CC(C(=O)OC)=C(C(=O)OC)C1=C(C(=O)OC)C(=C2N(CCOC2=O)C1=O)C(=O)OC,6.1690930999999996
6702,EQEDEL,C13 H12 Br2 N2 O3,CCCCN1C=C[N+](=C1)C1=C([O-])C(=O)C(=C(Br)C1=O)Br,5.4694883899999995
6705,EQEPIA,C17 H14 N2,CN(C)c1ccc(cc1)C#Cc1ccccc1C#N,5.656430609999999
6706,EQEPOG,C26 H19 N1,CN(C)c1ccc(cc1)C#Cc1ccc2ccc3cccc4ccc1c2c34,5.0392764
6707,EQEQEY,C26 H16 S2,S1c2ccccc2C=C1C1=CC2=CC=CC2=C(C=C1)C1=Cc2ccccc2S1,4.7105628600000005
6708,EQEQIC,C26 H16 S2,S1c2ccccc2C=C1C1=CC(=C2C=CC=CC=C12)C1=Cc2ccccc2S1,4.46865366
6709,EQETOK,C10 H18 N4 O2,CC1(C)CC2(C)NCCN2C(=N)C1=[N+](O)[O-],6.28582994
6710,EQICEN,C16 H14 N6,CN1C=CN=C1c1nc2ccccc2nc1C1=NC=CN1C,5.76854152
6711,EQICOY,C7 H7 N1 O3,[NH3+]c1cccc(C(=O)[O-])c1O,5.34649294
6712,EQIFUH,C26 H20 N2 S1,CCN1c2ccccc2c2cc(ccc12)N1c2ccccc2Sc2ccccc12,5.61234817
6713,EQIJAQ,C10 H10 N6 O1 S2,C1CSc2nncc(n2)c2cnnc(SCCO1)n2,5.56091865
6714,EQOCIY,C40 H37 N3 O4,COc1ccc(cc1)N(c1ccc(Nc2ccc(cc2)N(c2ccc(OC)cc2)c2ccc(OC)cc2)cc1)c1ccc(OC)cc1,5.8899043
6715,EQOGIA,C23 H18 S5,CC1=C(SSC1=CC(=S)C=C1SSC(=C1C)c1ccccc1)c1ccccc1,4.31218819
6716,EQOKAY,C25 H28 Br1 N3 O3,CC(C)CC(N1C(=O)c2ccccc2C1=O)C(=O)N1CCN(CC1)Cc1ccc(Br)cc1,6.52773916
6717,EQOKEC,C25 H28 F1 N3 O3,CC(C)CC(N1C(=O)c2ccccc2C1=O)C(=O)N1CCN(CC1)Cc1ccc(F)cc1,6.50161623
6718,EQOKIG,C24 H26 F1 N3 O3,CC(C)C(N1C(=O)c2ccccc2C1=O)C(=O)N1CCN(CC1)Cc1ccc(F)cc1,6.22542067
6719,EQOKUS,C29 H37 N3 O3,CC(C)CC(N1C(=O)c2ccccc2C1=O)C(=O)N1CCN(CC1)Cc1ccc(cc1)C(C)(C)C,6.75277731
6720,EQONAZ,C10 H5 Cl1 O3,Clc1ccc2OC(=O)C=C(C=O)c2c1,6.01670934
6721,EQONON,C10 H5 F1 O3,Fc1ccc2OC(=O)C=C(C=O)c2c1,6.07820708
6722,EQOPIJ,C30 H18 F2 O2,Fc1ccc(cc1)C1c2ccccc2C(=O)C1=C1C(c2ccc(F)cc2)c2ccccc2C1=O,5.84310072
6723,EQOTIP,C26 H23 N1 O2,CCN1c2ccccc2c2cc(ccc12)C=C1CCc2cc(OC)ccc2C1=O,5.82214795
6724,EQOTOV,C17 H17 N1 O2,COc1ccc2C(=O)C(CCc2c1)=CC1=CC=CN1C,5.82187583
6727,EQUCID,C32 H26 P2 S5,CC1=C(C)SC(S1)=C1SC(=C(S1)P(=S)(c1ccccc1)c1ccccc1)P(c1ccccc1)c1ccccc1,5.11138656
6728,EQUCIE,C33 H38 O7,CC(C)=CCCC(C)=CCC1(CC=C(C)C)C(=O)C(=C(O)C2=C1C(=O)c1c(O)cc3OC(C)(C)C=Cc3c1O2)O,5.7693578599999995
6729,EQUCOK,C20 H22 N2 O6,OCCOCCN1C(=O)c2ccc3OCCN(CCO)c4ccc(C1=O)c2c34,5.467583589999999
6730,EQUNOV,C21 H13 N3 O2 S1,O=C(Nc1cccc2cccnc12)C1=C(C=CS1)C1=Nc2ccccc2O1,5.8213316
6731,EQUPAJ,C20 H17 Br1 O3,CC(=O)C=C(c1ccccc1)C(C(C)=O)=C(O)c1ccccc1Br,6.31576247
6732,EQUPEN,C20 H17 Br1 O3,CC(O)=C(C(C)=O)C(=CC(=O)c1ccccc1Br)c1ccccc1,6.29644239
6733,EQUQOW,C28 H28 O4 S1,CC(C)C1=CC2=C(C)C=Cc3c(O)c(c(O)c(C)c3C2=C(C)C=C1)S(=O)(=O)c1ccccc1,5.98133455
6734,EQUQUC,C28 H28 O4 S1,CC(C)C1=CC2=C(C)C=Cc3c(C)c(O)c(c(O)c3C2=C(C)C=C1)S(=O)(=O)c1ccccc1,5.70486688
6735,EQURAJ,C28 H30 O5 S1,COC(=O)C1=C2C(=CC=C(C=C2C(=CC=C1C(=O)C(C)S(=O)(=O)c1ccccc1)C)C(C)C)C,5.49425076
6736,EQUREN,C25 H31 N1 O6 S1,COC(=O)C1=CC=C(C)C2=CC(=CC=C(C)C2=C1C(=O)CS(=O)(=O)N1CCOCC1)C(C)C,5.72473119
6737,EQURIR,C27 H28 O5 S1,COC(=O)C1=CC=C(C)C2=CC(=CC=C(C)C2=C1C(=O)CS(=O)(=O)c1ccccc1)C(C)C,5.781330869999999
6738,EQUSAK,C24 H28 O2,COc1cc(OC)c2c(C=CC(=C3C=C(C=CC(=C23)C)C(C)C)C)c1C,5.96745674
6739,EQUWET,C33 H27 N3 O6,CN1C(=O)C2=C(C1=O)C1=C(Oc3cccc4NC=C2c34)N(C(=O)OC(C)(C)C)c2cc(OCc3ccccc3)ccc12,5.2207763300000005
6740,ERABIJ,C9 H18 N6 S2,CNC(=S)NN=C(C)C(C)=NNC(=S)N(C)C,5.93670788
6741,ERACOP,C40 H48 N6,CC1(C)C2CCC1(C)c1nc3c(ccc(N4CCCC4)c3nc21)c1ccc(N2CCCC2)c2nc3C4CCC(C)(c3nc12)C4(C)C,5.204993730000001
6742,ERACUV,C44 H36 N10,C1CCN(C1)c1ccc(c2ccc(N3CCCC3)c3nc(c4ccccn4)c(nc23)c2ccccn2)c2nc(c3ccccn3)c(nc12)c1ccccn1,4.91519249
6743,ERANEQ,C25 H23 N3 O2,CN1C(=O)C(=C(C1=O)C1=C(C)N(C)c2ccccc12)C1=C(C)N(C)c2ccccc12,5.22540227
6744,ERANIU,C28 H29 N3 O2,CCN1C(=O)C(=C(C1=O)C1=C(C)N(CC)c2ccccc12)C1=C(C)N(CC)c2ccccc12,5.197102429999999
6745,ERAPIY,C28 H26,Cc1ccc(cc1)C1=C2CCCCC(=C2c2ccc(C)cc12)c1ccccc1,5.698064030000001
6746,ERAWOK,C11 H7 N3 O1 S4,O=C(Nc1cncnc1)C1=CSC(S1)=C1SC=CS1,4.8098844199999995
6747,ERAWUP,C28 H24 N4,C1Cc2ccc(CCc3ccc1cc3N=Cc1ccccn1)cc2N=Cc1ccccn1,5.910857069999999
6748,EREHAM,C32 H14 F10 N2 O2,Fc1c(F)c(F)c(CN2C(=O)C3=C(N(Cc4c(F)c(F)c(F)c(F)c4F)C(=O)C3=C2c2ccccc2)c2ccccc2)c(F)c1F,5.05424266
6749,ERENIA,C26 H16 F8 N2 S2,CC12SC(=NC1=C1C(=C3N=C(SC23C)c2ccccc2)C(F)(F)C(F)(F)C(F)(F)C1(F)F)c1ccccc1,4.64770457
6750,ERENUK,C15 H13 Cl1 N2 O1 S1,Cc1ccc(NC(=S)NC(=O)c2ccc(Cl)cc2)cc1,5.7407859
6751,EREQID,C12 H16 Br1 N1 O5,COc1cc(Br)cc(C=[NH+]C(CO)(CO)CO)c1[O-],5.22785129
6752,EREQOH02,C25 H28 Cl1 N1 O2,Cc1cccc2c(Cl)cc(nc12)C1=C(O)C=C(C=C(C1=O)C(C)(C)C)C(C)(C)C,5.76962998
6753,ERESAX,C18 H12 N4,c1ccc(cc1)c1nnc(c2ccccc2)c2ncncc12,6.18514782
6754,EREWIH,C30 H36 N2 S1,CC(C)(C)C#CC1=C(C#CC(C)(C)C)C(=C(C#CC(C)(C)C)C2=NSN=C12)C#CC(C)(C)C,5.32744497
6755,ERILAS,C16 H20 N2 O6,CCOC(=O)c1cc(NC(C)=O)c(cc1NC(C)=O)C(=O)OCC,5.941878040000001
6756,ERILEW,C28 H28 N2 O8,CCOC(=O)c1cc(NC(=O)c2ccccc2OC)c(cc1NC(=O)c1ccccc1OC)C(=O)OCC,5.80690957
6757,ERILIC,C19 H18 Br1 N1 O3,CCN(CC)c1ccc(cc1)C1=C(O)C(=O)c2cc(Br)ccc2O1,5.6017357300000015
6758,ERIRUT,C22 H17 Cl1 N4 O2 S2,Clc1ccc(NC(=S)NC(=O)c2ccccc2)c(NC(=S)NC(=O)c2ccccc2)c1,6.190862210000001
6759,ERISAA,C30 H22 O7,COc1ccc(Oc2ccc(cc2)C2=C(C(=O)OC2=O)c2ccc(Oc3ccc(OC)cc3)cc2)cc1,5.385133099999999
6760,ERISUT,C18 H18 O6,COc1ccc(cc1OC)C=C(Oc1ccccc1OC)C(O)=O,6.064601379999999
6761,ERITAB,C14 H10 F1 N3 O1,Fc1ccc2NC(=O)C(=NNc3ccccc3)c2c1,5.48282197
6762,ERITIJ,C28 H22 Cl2 N2 O2,COc1cc(ccc1N=Cc1ccc(Cl)cc1)c1ccc(N=Cc2ccc(Cl)cc2)c(OC)c1,5.73915322
6763,ERITUV,C27 H30 N2 O2,O=C(CCN1CCCCC1)N1CC(=Cc2ccccc2)C(=O)C(C1)=Cc1ccccc1,5.89453023