,ID,formula,smiles,HOMO_LUMO_gap
1419,BANHAC,C17 H10 N2 O3,N#CC(=Cc1ccc2OCOc2c1)C1=Nc2ccccc2O1,5.64772297
1420,BANJEH,C17 H15 N1 O3,CN(C)c1ccc(cc1)C1=C(O)C(=O)c2ccccc2O1,5.867318849999999
1421,BANQEM,C19 H25 N11,CN(N=C(C)NC(C)=NC1=NC(=NN1C)Nc1ccccc1)c1nc(C)nc(C)n1,6.18133823
1422,BANVIW,C18 H15 N3 S1,CC(C)SC=C(C(=C)c1ccccc1)C(C#N)=C(C#N)C#N,5.05941282
1423,BANWAP,C42 H30 N2 O4 S4,O=S(=O)(N1C(=C(Sc2ccccc2)c2ccccc12)C=CC1=C(Sc2ccccc2)c2ccccc2N1S(=O)(=O)c1ccccc1)c1ccccc1,5.3598265099999995
1424,BANWET,C17 H14 N2 O2,COc1ccc(NC(=O)c2ccc3ccccc3n2)cc1,5.60200784
1425,BANWIX,C16 H11 I1 N2 O1,Ic1ccc(NC(=O)c2ccc3ccccc3n2)cc1,5.89425812
1426,BANYAR,C15 H14 N2 O1,CC1=C(C)C=C(N1)C=C1C(=O)Nc2ccccc12,5.19111593
1427,BANYEV,C14 H12 N2 O1,CN1C=CC=C1C=C1C(=O)Nc2ccccc12,5.36173131
1428,BANZIA,C27 H22 O3,COc1ccc(cc1)C(=CC=C1C=CC(=O)c2ccccc12)c1ccc(OC)cc1,4.67246692
1429,BANZUM,C33 H26 O3,COc1ccc(cc1)C(=CC(c1ccccc1)=C1C=CC(=O)c2ccccc12)c1ccc(OC)cc1,4.7957345
1430,BAPLEJ,C6 F4 O2,FC1=C(F)C(=O)C(=C(F)C1=O)F,5.99249121
1431,BAPNIQ,C24 H16 N2 O2,Cc1cc2N3C(=O)c4ccccc4C3=C3N(C(=O)c4ccccc34)c2cc1C,4.77042792
1432,BAPNIR,C24 H21 Br1 N2 O2,CCOC(=O)C1=C2N(CCC3=C2Nc2ccccc32)C=CC1c1ccc(Br)cc1,5.91357819
1433,BAPNOW,C6 H2 F4 N2 O1 S2,Nc1c(F)c(F)c(F)c(F)c1SN=S=O,6.24474075
1434,BAPPAK,C16 H14 O2,O=C1C=C2CCc3ccc(CCC1=CC2=O)cc3,5.917387789999999
1435,BAPRIV,C22 H22 N2 O4,COc1ccc(cc1)C=C1N=C(OC)C(=Cc2ccc(OC)cc2)N(C)C1=O,5.67439012
1436,BAPSIX,C18 H14 N2 O2 S1,OC1=C(Sc2ccccc12)C=[N+]1[N-]C(=O)CC1c1ccccc1,5.07165795
1437,BAPSUI,C22 H15 N1 O1 S2,N#CC=C1OC2=C(CCSc3ccccc23)C2=C1CSc1ccccc21,5.18213617
1438,BAPTAP,C17 H13 Cl1 N2 O2 S1,Clc1ccc2SCC3=C(OC(=O)C(=C3N3CCCC3)C#N)c2c1,5.69289386
1439,BAPTET,C23 H17 N1 O2 S1,Cc1ccc2OCCC3=C(OC(=CC#N)C4=C3c3ccccc3SC4)c2c1,5.07220217
1440,BAPVAQ,C21 H21 N1 O5,COC1N2CCc3cc4OCOc4cc3C2=Cc2ccc(OC)c(OC)c12,5.86949576
1441,BAPVEU,C22 H22 Cl3 N1 O4,COc1cc2CCN3C(c4c(ccc(OC)c4OC)C=C3c2cc1OC)C(Cl)(Cl)Cl,5.831944050000001
1442,BAPWIA,C23 H17 F3 N2 O1,COc1ccc(cc1)N1C(=Cc2ccccc2)c2ccccc2N=C1C(F)(F)F,5.97017788
1443,BAPXOI,C21 H13 N3 O2,O=C1N2N(c3ccccc3)c3ccccc3C(=O)C2=Nc2ccccc12,5.9407895900000005
1444,BAQBUS,C31 H30 N2 O6,CCOC(=O)C(C(c1ccccc1)[C-]1C(=O)OC(C)(C)OC1=O)N1C=[N+](Cc2ccccc2)c2ccccc12,4.73804637
1445,BAQCAZ,C34 H27 N3 O1,CC(C)c1ccc(cc1)C1=C2N(Cc3ccccc3)c3ccccc3N2C(=C1C#N)C(=O)c1ccccc1,5.6542537
1446,BAQCOO,C28 H19 I1,IC1=C(c2ccccc2)C(c2ccccc12)=C(c1ccccc1)c1ccccc1,5.58404833
1447,BAQCUU,C22 H14 Br2 O2,Brc1ccc(cc1)C1C=CC(c2ccc(Br)cc2)C2=C1C(=O)C=CC2=O,5.35873806
1448,BAQDOO,C23 H17 Cl1 N4 O1,COc1ccc(CC2=NC3=C4C=CC=CC4=NN3N=C2c2ccc(Cl)cc2)cc1,5.586769459999999
1449,BAQNOX,C22 H12 Br1 N1 O1,BrC1=CC=CC=C(C1=O)c1c2ccccc2c(C#N)c2ccccc12,4.95927492
1450,BAQPAL,C29 H18 Br4 N2 O1,BrC1C=CC(C(Br)C1Br)C1(C#N)c2ccccc2C(C#N)(C2=CC=CC=C(Br)C2=O)c2ccccc12,6.09752716
1451,BAQPOZ,C29 H7 F15 N2,Fc1c(F)c(F)c(C=C(C2=NC(C=C2)=C(C2=CC=CN2)c2c(F)c(F)c(F)c(F)c2F)c2c(F)c(F)c(F)c(F)c2F)c(F)c1F,4.62539123
1452,BAQQEQ,C29 H5 F15 N2 O2,Fc1c(F)c(F)c(c(F)c1F)C(=O)C1=CC=C(N1)C(=C1C=CC(=N1)C(=O)c1c(F)c(F)c(F)c(F)c1F)c1c(F)c(F)c(F)c(F)c1F,4.67763709
1453,BAQTIZ,C25 H22 N2 O2,O=C1CC(CCOCc2ccccc2)[N+]([N-]1)=C1c2ccccc2c2ccccc12,5.097236649999999
1454,BAQZOL,C16 H12 Br2 N4,Brc1ccc(Cc2nnc(Cc3ccc(Br)cc3)nn2)cc1,5.90051673
1455,BAQZUR,C24 H22 N4 O1,Cc1ccc(Cc2nnc(Cc3ccc(OCc4ccccc4)cc3)nn2)cc1,5.79439234
1456,BARCAB,C47 H31 B1 F1 N3,Fc1ccc2c3cccc[n+]3[B-](c3ccc(cc3)N3c4ccccc4c4ccccc34)(c3ccc(cc3)N3c4ccccc4c4ccccc34)c2c1,5.117917300000002
1457,BARCEF,C47 H35 B1 F1 N3,Fc1ccc2c3cccc[n+]3[B-](c3ccc(cc3)N(c3ccccc3)c3ccccc3)(c3ccc(cc3)N(c3ccccc3)c3ccccc3)c2c1,4.844715
1458,BARCOM04,C42 H28 Cl2 N4,Clc1ccccc1C1=NC(=C(N1C1(N=C(c2ccccc2)C(=N1)c1ccccc1)c1ccccc1Cl)c1ccccc1)c1ccccc1,5.186217879999999
1459,BARGOR,C22 H23 N3 S1,CCN(CC)C(=S)N=C(Nc1cccc2ccccc12)c1ccccc1,5.87929186
1460,BARHEI,C26 H25 N3 S1,CCN(CC)C(=S)N=C(Nc1cccc2ccccc12)c1ccc2ccccc2c1,5.5345236
1461,BARMIT,C34 H26 O1,COc1ccc2CC(C)C(c2c1c1cccc2ccccc12)=C1c2ccccc2c2ccccc12,5.5894905999999995
1462,BARNAL,C21 H24 B1 N7 S3,CN1C=CN(C1=S)[B-]1(N2C=CN(C)C2=S)C(Sc2[n+](C)ccn12)=Nc1c(C)cccc1C,5.93398674
1463,BARNUE,C36 H34 Cl2 N6 O4,CC(=O)C(=NNc1ccc(cc1Cl)c1ccc(NN=C(C(C)=O)C(=O)Nc2ccc(C)cc2C)c(Cl)c1)C(=O)Nc1ccc(C)cc1C,5.1102981100000004
1464,BARPAM01,C34 H30 Cl2 N6 O4,CC(=O)C(=NNc1ccc(cc1Cl)c1ccc(NN=C(C(C)=O)C(=O)Nc2ccccc2C)c(Cl)c1)C(=O)Nc1ccccc1C,5.15165942
1465,BARPEQ,C32 H24 Cl4 N6 O4,CC(=O)C(=NNc1ccc(cc1Cl)c1ccc(NN=C(C(C)=O)C(=O)Nc2ccccc2Cl)c(Cl)c1)C(=O)Nc1ccccc1Cl,5.2308445500000005
1466,BARQAP,C15 H14 N2 O5,COC(=O)CN1C(=NC(=Cc2ccc(cc2)C(O)=O)C1=O)C,5.6809208600000005
1467,BARSOD,C36 H32 Cl4 N6 O8,COc1cc(NC(=O)C(=NNc2ccc(cc2Cl)c2ccc(NN=C(C(C)=O)C(=O)Nc3cc(OC)c(Cl)cc3OC)c(Cl)c2)C(C)=O)c(OC)cc1Cl,4.874103290000001
1468,BARTEU,C33 H31 Cl1 N2 O4,COC(=O)C1=C(OC(=O)C1=C1N(C=CN1c1c(C)cc(C)cc1C)c1c(C)cc(C)cc1C)c1cccc(Cl)c1,5.452073110000001
1469,BARTUM,C20 H20 N2 O5,CCOC(=O)C1=C(N)C(C#N)(C(C)C)C(O1)C1=COc2ccccc2C1=O,6.08174456
1470,BARVIA02,C28 H20 N2,c1ccc2nc(C=Cc3ccc(cc3)C=Cc3ccc4ccccc4n3)ccc2c1,5.10893754
1471,BARWID,C20 H16 O4,COC(=O)C12C3C=CC(=Cc4ccccc4)C3C1C(=O)C=CC2=O,5.207442759999999
1472,BARYAV,C19 H28 N2,C1CCC(CC1)NC=C1C=CC=C1C=NC1CCCCC1,5.992763330000001
1473,BARZUS,C18 H10 F8 N4,Nc1ccc(cc1N)c1ccc2nc3c(nc2c1)C(F)(F)C(F)(F)C(F)(F)C3(F)F,4.457224869999999
1474,BASCIK,C19 H15 N3 O3,CN(C)c1ccc(cc1)C(=O)N1C=C2C(=O)Oc3ccccc3C2=N1,5.93670788
1475,BASKOX,C10 H6 I1 N1 O2,IC=CN1C(=O)c2ccccc2C1=O,5.87847551
1476,BASKUD,C18 H12 F1 N1 O2,Fc1cccc(C=CC=CN2C(=O)c3ccccc3C2=O)c1,5.26785203
1477,BASLEO,C17 H13 N1 O2,Cc1ccc(C=CN2C(=O)c3ccccc3C2=O)cc1,5.51520352
1478,BASLIS,C18 H13 N1 O2,O=C1N(C=CC=Cc2ccccc2)C(=O)c2ccccc12,5.212340810000001
1480,BASRAQ,C15 H11 Cl1 O2 S2,CSC(=CC(=O)c1ccc(Cl)cc1)C(=O)C1=CC=CS1,6.03739
1481,BASREU,C20 H14 Cl1 N1 O2 S1,Clc1ccc(cc1)C(=O)C=C(Nc1ccccc1)C(=O)C1=CC=CS1,5.73235038
1482,BASRUK,C23 H19 N1 O2,O=C(C=C(NCc1ccccc1)C(=O)c1ccccc1)c1ccccc1,6.00528057
1483,BASSIZ,C29 H27 Br1 N2 O2,Brc1ccc(cc1)C(C(Nc1ccccc1)=[NH+]C1CCCCC1)[C-]1C(=O)c2ccccc2C1=O,5.773167449999998
1484,BASVEW,C22 H26 N2 O5,CC1COCCOCCOCC(C)Oc2cccc3nc4cccc(O1)c4nc23,5.4801008399999995
1485,BASVID,C24 H26 O2 S1,COc1ccc2C3CCC4(C)C(CC(=CC5=CC=CS5)C4=O)C3CCc2c1,6.1900458700000005
1486,BASVUM,C12 H16 N2 O4,CCOC(=O)c1cc(N)c(cc1N)C(=O)OCC,5.22458593
1487,BASWOJ,C30 H18 O4,O=C1OC(c2ccccc12)=C(c1ccccc1)C(=C1OC(=O)c2ccccc12)c1ccccc1,5.676839149999999
1488,BASWUP,C44 H30 F2 N2 O4,COc1ccc(cc1)N=C1OC(c2ccccc12)=C(c1ccc(F)cc1)C(c1ccc(F)cc1)=C1OC(=Nc2ccc(OC)cc2)c2ccccc12,5.18921113
1489,BASXEY10,C14 H20 O3,CC1=C(C)C2=C(CCC(C)(C)O2)C(C)(O)C1=O,6.30487791
1490,BASXUQ,C27 H21 N1 O5,CCCCN1C(=O)c2cc3C(=O)c4ccc(cc4C(=O)c3cc2C1=O)c1ccc(OC)cc1,4.91464826
1491,BASYEB,C20 H20 N2 O3 S1,Cc1ccc(cc1)S(=O)(=O)NCCNC=C1C(=O)C=Cc2ccccc12,5.7562964
1492,BATCAA,C21 H12 O1,O=C1c2cccc3cccc(c4ccc5ccccc5c14)c23,4.85206207
1493,BATCAC,C22 H15 Cl1 N4,Nc1nc2c(CCC3=C2Nc2ccc(Cl)cc32)c(c2ccccc2)c1C#N,5.46948839
1494,BATNES,C38 H29 N7 O2 S2,COc1ccc(cc1)C1=NN=C(S1)N=Cc1ccc(cc1)N(c1ccccc1)c1ccc(cc1)C=NC1=NN=C(S1)c1ccc(OC)cc1,5.1551969
1495,BATNIW,C28 H20 N4 O1 S1,COc1ccc(cc1)C1=NN=C(S1)N=Cc1ccc(cc1)N1c2ccccc2c2ccccc12,5.26077707
1496,BATPET,C44 H44 O2 S3,CCCCCCc1ccc(cc1)C1=CC=C(S1)c1ccc2c3ccc(cc3S(=O)(=O)c2c1)C1=CC=C(S1)c1ccc(CCCCCC)cc1,5.136421040000001
1497,BATPUJ,C26 H12 N4,N#CC(C#N)=C1c2ccccc2C(c2cc(ccc12)c1ccccc1)=C(C#N)C#N,4.947029799999999
1498,BATQAQ,C32 H16 N4,N#CC(C#N)=C1c2ccccc2C(c2cc(ccc12)c1ccc(cc1)c1ccccc1)=C(C#N)C#N,4.67056213
1499,BATQIY,C24 H10 N4 S1,N#CC(C#N)=C1c2ccccc2C(=C(C#N)C#N)c2cc(ccc12)C1=CC=CS1,4.62076529
1500,BATQOE,C28 H12 N4 S2,N#CC(C#N)=C1c2ccccc2C(=C(C#N)C#N)c2cc(ccc12)C1=CC=C(S1)C1=CC=CS1,4.019121569999999
1502,BATXID,C22 H14 N4 O2,O=C1OC(c2ccccc12)c1cc(nnc1c1ccccn1)c1ccccn1,6.2684146599999995
1503,BAVCUZ,C27 H19 N3 O1,CN1C(=O)C2(c3ccccc13)C(=C(N1c3ccccc3C(=C21)C)c1ccccc1)C#N,5.83167193
1504,BAVDEJ,C32 H24 N6,C(N1C=CC(=N1)c1ccccn1)c1cccc2cc3cccc(CN4C=CC(=N4)c4ccccn4)c3cc12,5.4988767
1505,BAVHIR,C20 H11 Cl1 O3,Clc1ccccc1C(=O)C1=Cc2c(OC1=O)ccc1ccccc21,5.89153698
1506,BAVKOB,C26 H32 N6 S2,CCCCCC[N+]1=Nc2c([N-]1)c(C1=CC=CS1)c1N=[N+](CCCCCC)[N-]c1c2C1=CC=CS1,4.063204020000001
1507,BAVKUH,C26 H32 N6 S2,CCCCCCN1N=Nc2c1c(C1=CC=CS1)c1N(CCCCCC)N=Nc1c2C1=CC=CS1,5.2947913
1508,BAVLAO,C26 H32 N6 S2,CCCCCCN1N=Nc2c1c(C1=CC=CS1)c1N=NN(CCCCCC)c1c2C1=CC=CS1,5.6305798
1509,BAVMAO,C21 H13 N1 O2,N#CC=C1Oc2c3C=COc3ccc2C2=C1CCc1ccccc21,5.330166099999999
1510,BAVMIU,C9 H8 Cl2 N2 O2,ClC(=NC1=C(Cl)C(=O)C1=O)N1CCCC1,6.641754870000001
1511,BAVNEU,C11 H10 O1 S1,Cc1ccc2C(=CC(=S)Oc2c1)C,5.82269217
1512,BAVZUW,C19 H20 N4 O3 S1,CN(C)c1ccc(cc1)C=Nc1ccc(cc1)S(=O)(=O)NC1=NOC(=C1)C,5.912217630000001
1513,BAWCUA,C17 H17 N1 O3,COc1ccc2C=CC3=CC(=O)C4N(C)CCC34c2c1O,5.3497582999999995
1514,BAWDOT,C8 H4 Cl1 N3 S1,ClC1=S=NN2c3ccccc3N=C12,5.0594128199999995
1515,BAWFIP,C34 H32 N2 O1,CN(C)c1ccc(cc1)C1(c2ccc(cc2)N(C)C)c2cccc3cccc(c23)C1(O)c1ccccc1,6.09018009
1516,BAWFUB,C36 H35 N3 O1,CN(C)c1ccc(cc1)c1ccc2cccc3c2c1C(=O)C3(c1ccc(cc1)N(C)C)c1ccc(cc1)N(C)C,5.197102429999999
1517,BAWGAI,C36 H37 N3 O1,CN(C)c1ccc(cc1)C(c1ccc(cc1)N(C)C)c1cccc2cccc(C(=O)c3ccc(cc3)N(C)C)c12,5.60581743
1518,BAWGEM,C36 H37 N3 O1,CN(C)c1ccc(cc1)C1OC(c2ccc(cc2)N(C)C)(c2ccc(cc2)N(C)C)c2cccc3cccc1c23,6.028138129999999
1519,BAWGIQ,C32 H35 N3 O3,CC(C)NC(=O)C(Cc1ccccc1)NC(=O)C12CCC(CC1c1ccccc1)N2C(=O)c1ccccc1,6.78461464
1520,BAWHUD,C14 H20 N2 O5,O=C1C=C2NCCOCCOCCOCCNC1=CC2=O,5.25587902
1521,BAWJAL,C12 H14 Br2 N2 O4,BrC1=C2NCCOCCOCCNC(=C(Br)C2=O)C1=O,5.232477230000001
1522,BAWMIV,C14 H9 Cl2 N1 O1,COc1ccc2nc3cc(Cl)ccc3c(Cl)c2c1,5.55683694
1523,BAWNEV,C38 H30 N2 O2 S1,Cc1ccc(cc1)S(=O)(=O)N1C=C(N2C(C3C(C=C2c2ccccc2)c2ccccc32)c2ccccc12)c1ccccc1,5.9889537399999995
1524,BAWXAZ,C49 H42 N2 O5 S1,CC(C)C1N(C(=O)OC1(c1ccccc1)c1ccccc1)C(=O)C(CSC(c1ccccc1)(c1ccccc1)c1ccccc1)CN1C(=O)c2ccccc2C1=O,5.82650177
1525,BAWYUW,C26 H20 N4,C1c2ccc(cc2)N=Nc2ccc(Cc3ccc(cc3)N=Nc3ccc1cc3)cc2,6.43467623
1526,BAXCEL,C28 H26 N2 O2,CCCCOc1ccc2ccc3nnc4ccc5ccc(OCCCC)c6c1c2c3c4c56,5.3396900899999995
1527,BAXHEO,C28 H16 N2,c1cc2cc3cccc(C#Cc4ccncc4)c3cc2c(c1)C#Cc1ccncc1,5.11274714
1528,BAXIFL,C20 H24 N2 O2,CC(C)(C)NCC(O)CON=C1c2ccccc2c2ccccc12,6.06405716
1529,BAXSAX,C21 H18 F2 O4,CCOC(=O)C(F)(F)C1=C(c2ccc(OC)cc2)c2cc(C)ccc2C1=O,5.632756710000001
1530,BAXVOL,C13 H10 N2 O3,COc1ccc2N=C3C=C(N)C(=O)C=C3Oc2c1,4.77723076
1531,BAYKAQ,C16 H15 N1 O3,Cc1ccc(cc1)[N+]([O-])=C(CO)C(=O)c1ccccc1,6.10351367
1532,BAYQID,C24 H20 N2 O2 S2,COc1ccc(Nc2c(Nc3ccc(OC)cc3)c3C=CSc3c3SC=Cc23)cc1,6.1356231
1533,BAYSIG,C36 H30 Cl2 N4 O4,CC(=NOCc1ccccc1)c1cccc(NC2=C(Cl)C(=O)C(=C(Cl)C2=O)Nc2cccc(c2)C(C)=NOCc2ccccc2)c1,4.92063476
1534,BAZBIN,C19 H14 N4 S1,S1C(=Nc2ccccc12)[N-][N+](=Nc1ccccc1)c1ccccc1,5.163088200000001
1535,BAZDOV,C16 H14 N2 O1 S1,CC1=Nc2ccc(N=O)c(CCc3ccccc3)c2S1,6.19576026
1536,BAZFLU,C13 H7 Br1 N2,Brc1ccc2c3ccccc3C(=[N+]=[N-])c2c1,6.1481403299999995
1537,BAZGIS,C9 H9 N1 O6 S1,COC(=O)C1=NOC(=O)C(=C1C(=O)OC)SC,6.12011261
1538,BAZGUG,C34 H35 N5 O3,CCN(CC)c1ccc2c(Oc3cc(ccc3C32N(NC(=O)c2ccccn2)C(=O)c2ccccc32)N(CC)CC)c1,6.12446643
1539,BAZGXN,C8 H5 Cl1 N4,Clc1ccc(cc1)N=NC(=N)C#N,6.28474149
1540,BAZHAO,C19 H18 O7,COc1cc(O)c2C(=O)C(=C(Oc2c1)c1ccc(OC)c(OC)c1)OC,6.04337651
1541,BAZLOD,C24 H18 N2 S1,c1ccc(cc1)c1ccc(cc1)N=S=Nc1ccc(cc1)c1ccccc1,4.60226156
1542,BAZMUN,C16 H17 N3 O4,CCCNc1cccc2C(=O)N(C3CCC(=O)NC3=O)C(=O)c12,5.96446349
1543,BAZNAU,C16 H17 N3 O4,CC(C)Nc1cccc2C(=O)N(C3CCC(=O)NC3=O)C(=O)c12,5.92854446
1544,BAZNEV,C16 H13 N1 O1 S1,O=Nc1ccc2SC=Cc2c1CCc1ccccc1,6.313313450000001
1545,BAZSPD01,C25 H33 N3 O12,COC(=O)C1=C(N(C)C2(N1C)C(=C(N(C(=C2C(=O)OC)C(=O)OC)C(C)(C)C)C(=O)OC)C(=O)OC)C(=O)OC,5.1258086
1546,BAZTEE,C14 H10 N4,Cc1nc2ccc3nc(C)nc4ccc(n1)c2c34,6.17154213
1547,BAZXIJ,C16 H24 O6 S4,COC(C(=O)SC)=C(OC)C(SC)=C(SC)C(OC)=C(OC)C(=O)SC,6.064329270000001
1548,BAZXOP,C7 H10 O3 S2,COC(=CSC)C(=O)C(=O)SC,5.8202431500000005
1549,BBCPEO01,C19 H14 Br2 O1,Brc1ccc(cc1)C=C1CCC(=Cc2ccc(Br)cc2)C1=O,5.7426907
1550,BBINPY,C16 H9 Br1 O1,Brc1ccc2OC3=Cc4ccccc4C3=Cc2c1,5.30839699
1551,BBPIKR,C35 H50 Br1 N1 O9,CCC1OC(=O)C(C)C(=O)C(C)C(OC2OC(C)CC(C2OC(=O)c2ccc(Br)cc2)N(C)C)C(C)CC(C)C(=O)C=CC1(C)O,6.49345281
1552,BBTHLD,C10 H8 Br1 N1 O1 S2,Brc1ccc(cc1)C(=O)N1CCSC1=S,6.21780149
1553,BBZFRO,C6 H3 Br1 N2 O2,BrC1=CC2=NO[N+](=C2C=C1)[O-],5.64336915
1554,BBZIOX,C21 H13 Br1 N2 O3,Brc1ccc(cc1)C(=O)ON=C(c1ccccc1)C1=C2C=CC=CC2=NO1,5.9897700799999996
1555,BCBANN,C16 H10 O2,O=C1C2=CC3=CC=CC=C(C=C1C=CC=C2)C3=O,5.231660890000001
1556,BCHNAP,C18 H12,c1ccc2c(c1)C=Cc1cccc3cccc2c13,5.7399695699999995
1557,BCNCAM,C10 H15 Br1 Cl1 N1 O1,CC1(C)C2CCC1(CBr)C(Cl)(C2)N=O,7.2480245199999995
1558,BCODYN02,C16 H8,c1ccc2C#Cc3ccccc3C#Cc2c1,5.7073159
1559,BDFROX10,C24 H15 N4 O5 P1,O=C1C2=[N+]([O-])ON=C2C2=[N+]([O-])ON=C2C1=P(c1ccccc1)(c1ccccc1)c1ccccc1,5.7407859000000006
1560,BDMBFL,C22 H17 Br2 N1,CN(C)c1ccc(cc1)C=C1c2cc(Br)ccc2c2ccc(Br)cc12,5.3010499200000005
1561,BDNDSN01,C13 H10 N4 S1,N1N=C(Sc2ccccc12)N=Nc1ccccc1,4.75464531
1562,BDTOLE14,C6 H4 S4,S1C=CSC1=C1SC=CS1,5.9995661799999995
1563,BDTYCX10,C20 H26 S5,CC(C)(C)C1=CC(SS1)=C1CCCC(C1=S)=C1SSC(=C1)C(C)(C)C,4.42892503
1564,BEANTR,C18 H12,c1ccc2cc3c(ccc4ccccc34)cc2c1,5.517924659999999
1565,BEBBIW,C20 H17 F3 N2 O2 S1,CCS(=O)c1nc(cc(n1)C(F)(F)F)c1cccc(OCc2ccccc2)c1,6.10242521
1566,BEBCUJ,C16 H18 O6 S1,COC(=O)C(=CS(=O)(=O)c1ccc(C)cc1)C(=C(C)O)C(C)=O,6.58025714
1567,BEBGOG,C29 H21 N1 O2 S1,Cc1ccc(cc1)S(=O)(=O)N1c2ccccc2C(=C1C#Cc1ccccc1)c1ccccc1,5.7426907
1568,BEBGUN,C8 H5 F1 N2 O2,ON=C1C(=O)Nc2ccc(F)cc12,6.16201814
1569,BEBHOG,C28 H37 N3 O1,CCN(CC)c1ccc(cc1)C=C1CN(C)CC(=Cc2ccc(cc2)N(CC)CC)C1=O,5.35438423
1570,BEBHOI,C27 H22 N2,CN(C)c1ccc(cc1)c1cc(nc2ccc3ccccc3c12)c1ccccc1,5.821875830000001
1571,BEBHUM,C32 H41 N3 O1,CCN(CC)c1ccc(C=CC=C2CN(C)CC(=CC=Cc3ccc(cc3)N(CC)CC)C2=O)cc1,4.8645793
1572,BEBHUN,C31 H37 N1 O1 P2,CC(C)C1COC2=C(P(P(N12)c1c(C)cc(C)cc1C)c1c(C)cc(C)cc1C)c1ccccc1,5.65479793
1573,BEBJUO,C11 H15 N1 O5,OCC(CO)(CO)[NH+]=Cc1cccc(O)c1[O-],5.456699040000002
1574,BEBKAV,C12 H17 N1 O5,COc1cccc(C=[NH+]C(CO)(CO)CO)c1[O-],5.3987388
1575,BEBLAW,C13 H13 N3 O1 S1,CNC(=S)NN=Cc1c(O)ccc2ccccc12,5.59683767
1576,BEBLEA03,C14 H15 N3 O1 S1,CCNC(=S)NN=Cc1c(O)ccc2ccccc12,5.58540889
1577,BEBLIE,C18 H15 N3 O1 S1,Oc1ccc2ccccc2c1C=NNC(=S)Nc1ccccc1,5.545952379999999
1578,BEBREH,C10 H17 N5 S1,CCN(CC)C(=S)NN=CC1=NNC(=C1)C,6.01262764
1579,BEBROR,C8 H13 N5 S1,CN(C)C(=S)NN=CC1=NNC(=C1)C,5.85915543
1580,BEBSOQ,C27 H32 O1,Cc1ccc(cc1)C1=C(C=C(C=C(O1)C(C)(C)C)c1ccccc1)C(C)(C)C,6.00092674
1581,BEBWAG,C38 H24 Cl4,ClC1=C(Cl)C(C(=CC=C1c1ccccc1)c1ccccc1)=C1C(=C(Cl)C(=CC=C1c1ccccc1)c1ccccc1)Cl,5.7086764699999994
1582,BEBXIP,C11 H13 N3,CCN=C1C=C2C=CC=CC=C2N1N,5.166625679999999
1583,BEBXOV,C9 H6 N4,C1=CC=C2N3N=CN=C3N=C2C=C1,5.45887596
1584,BEBZIR,C17 H18 N4 O4,CCOC(=O)CC1=NN2C(=NC3=C2C(=C1C(=O)OCC)C=CC=C3)N,4.6716505900000005
1585,BECPOO,C9 H14 N2,CC(=C)C1=CC(C)(C)C=NN1,6.14950091
1586,BECQOS,C22 H16 F6,Cc1ccc2ccc(C)c3c4c(C)c(c(c(C)c4c1c23)C(F)(F)F)C(F)(F)F,5.73588786
1587,BECQUY,C24 H14 F12,Cc1cc(c2c3c1c1c(C)c(c(c(C)c1c3c(C)cc2C(F)(F)F)C(F)(F)F)C(F)(F)F)C(F)(F)F,5.64119223
1588,BECREJ,C22 H16 N2,Cc1ccc2ccc(C)c3c4c(C)c(C#N)c(C#N)c(C)c4c1c23,5.54867353
1589,BECRIN,C24 H14 F12,Cc1cc(c2cc(c(C)c3c4c(C)c(c(c(C)c4c1c23)C(F)(F)F)C(F)(F)F)C(F)(F)F)C(F)(F)F,5.696975569999999
1590,BECSAG,C24 H18 N2,c1ccc2c(C=Cc3ccncc3)ccc(C=Cc3ccncc3)c2c1,5.30567586
1591,BECYAL,C9 H8 N4 O1,NN=C1C(=O)C(=NN)c2ccccc12,5.54649662
1592,BEDBUK,C32 H20 S1,S1C(=CC=C1c1c2ccccc2cc2ccccc12)c1c2ccccc2cc2ccccc12,5.40200416
1593,BEDCIY,C32 H21 N1,c1ccc(cc1)N1C(=C2c3cccc4cccc(c34)C2=C1c1ccccc1)c1ccccc1,5.58404832
1594,BEDGEZ,C33 H36 N2 O1,CC1(C)C2=CC=C(N2)C(C)(C)c2cccc3c2C(=O)N2C(=CC=C2C3(C)C)C(C)(C)c2cccc1c2,5.89697925
1595,BEDHEA01,C32 H20 F5 N1 S2,FS(F)(F)(F)(F)c1ccc(cc1)C#CC1=CC=C(S1)C#Cc1ccc(cc1)N(c1ccccc1)c1ccccc1,5.31955366
1596,BEDJAV,C21 H19 P1,C1CC1=P(c1ccccc1)(c1ccccc1)c1ccccc1,5.5192852299999995
1597,BEDMOP,C26 H21 F1 N2 O4 S1,Cc1ccc(cc1)S(=O)(=O)NC(=O)C(c1ccccc1)=C1C(=O)N(CC=C)c2ccc(F)cc12,5.89806771
1598,BEDNAC,C28 H22 N2 O4 S1,Cc1ccc(cc1)S(=O)(=O)N=C1OC(=CC1=C1C(=O)N(CC=C)c2ccccc12)c1ccccc1,4.5018515400000005
1599,BEDNEG,C28 H21 F1 N2 O4 S1,Cc1ccc(cc1)S(=O)(=O)NC(=O)C(C#Cc1ccccc1)=C1C(=O)N(CC=C)c2ccc(F)cc12,5.406630099999999
1600,BEDPEI,C20 H25 N1 O2,COC(=O)c1ccc(CC(C)c2ccc(cc2C)N(C)C)cc1,6.16800465
1601,BEDRAD01,C26 H28 N2,CCCc1ccc(cc1)N=Cc1ccc(cc1)C=Nc1ccc(CCC)cc1,5.75711274
1602,BEDRIL01,C30 H36 N2,CCCCCc1ccc(cc1)N=Cc1ccc(cc1)C=Nc1ccc(CCCCC)cc1,5.48309409
1603,BEDROR01,C32 H40 N2,CCCCCCc1ccc(cc1)N=Cc1ccc(cc1)C=Nc1ccc(CCCCCC)cc1,5.7903106200000005
1604,BEDSEI,C17 H17 Br1 N4,CCN(CC)c1ccc(cc1)N=Nc1ccc(cc1Br)C#N,4.963356640000001
1605,BEDTUC,C28 H30 F2 N2 S2,CCCCCCC1=Cc2c(S1)c1SC(=Cc1c1nc3cc(F)c(F)cc3nc21)CCCCCC,5.02077265
1606,BEDVAK01,C28 H30 Br2 N2 S2,CCCCCCC1=Cc2c(S1)c1SC(=Cc1c1nc3cc(Br)c(Br)cc3nc21)CCCCCC,4.39545503
1607,BEDVEO,C28 H30 I2 N2 S2,CCCCCCC1=Cc2c(S1)c1SC(=Cc1c1nc3cc(I)c(I)cc3nc21)CCCCCC,5.2104360100000005
1608,BEDVOX,C18 H22 P2,CC(C)[P+]1([P-]c2ccc3CCc4ccc1c2c34)C(C)C,4.75110783
1609,BEDVUE,C28 H30 Cl2 N2 S2,CCCCCCC1=Cc2c(S1)c1SC(=Cc1c1nc3cc(Cl)c(Cl)cc3nc21)CCCCCC,4.9116550000000005
1610,BEDWIT,C29 H21 Br2 N1 O2,Cc1ccc(cc1)N1C2=CC=CC=CC2C(c2ccc(Br)cc2)(C1=O)C(=O)c1ccc(Br)cc1,5.96092601
1611,BEDXIR,C29 H20 O1,O=C1c2ccccc2C(Cc2c3ccccc3cc3ccccc23)c2ccccc12,5.39574554
1612,BEDXOX,C30 H22 O1,O=C1c2ccccc2C(CCc2c3ccccc3cc3ccccc23)c2ccccc12,5.367717819999999
1613,BEFBOG01,C27 H20 N2,c1ccc(cc1)N(c1ccccc1)c1ccc(cc1)c1ccc2ccccc2n1,5.40826278
1614,BEFCEX,C45 H30 N4,c1ccc2nc(ccc2c1)c1ccc(cc1)N(c1ccc(cc1)c1ccc2ccccc2n1)c1ccc(cc1)c1ccc2ccccc2n1,5.328261299999999
1615,BEFDIC,C15 H16 O4,CC1CC=CC(O1)=Cc1cc(O)c(C)c(O)c1C=O,5.94133381
1616,BEFDOI,C24 H19 N3 O1,CCOc1cc(ccc1C=C(C#N)C#N)N(c1ccccc1)c1ccccc1,5.478468149999999
1617,BEFDUO01,C25 H21 N3 O1,CCCOc1cc(ccc1C=C(C#N)C#N)N(c1ccccc1)c1ccccc1,5.53561207
1618,BEFFAW,C26 H23 N3 O1,CCCCOc1cc(ccc1C=C(C#N)C#N)N(c1ccccc1)c1ccccc1,5.15193153
1619,BEFFEA,C27 H25 N3 O1,CCCCCOc1cc(ccc1C=C(C#N)C#N)N(c1ccccc1)c1ccccc1,5.4194194499999995
1620,BEFFID,C18 H23 N3 O1,CC(C)c1cc(cc(C(C)C)c1O)N=Nc1ccc(N)cc1,5.73316671
1621,BEFFIE,C28 H27 N3 O1,CCCCCCOc1cc(ccc1C=C(C#N)C#N)N(c1ccccc1)c1ccccc1,5.40254839
1622,BEFFOK,C29 H29 N3 O1,CCCCCCCOc1cc(ccc1C=C(C#N)C#N)N(c1ccccc1)c1ccccc1,5.40989547
1623,BEFLEG,C23 H14 N2 O1,N1C=C(c2ccccc12)C1=C2C(=Nc3ccccc23)Oc2ccccc12,5.53016978
1624,BEFREJ,C8 H5 Cl2 N1 O2 S4,CCN(C1=C(Cl)SSC1=O)C1=C(Cl)SSC1=O,6.2101822900000005
1625,BEFSUA,C12 H15 N1 S2,CC1=CSC2=CC(=C(C=S)N12)C(C)(C)C,5.46703937
1626,BEFTAH,C28 H14 N2,c1ccc2c(c1)cc1ccc3nc4c5ccccc5cc5ccc6nc2c1c3c6c45,4.34157649
1627,BEFTAJ,C26 H48 N12 O2,CN(C)C(=NC1=C(N=C(N(C)C)N(C)C)C(=O)C(=C(N=C(N(C)C)N(C)C)C1=O)N=C(N(C)C)N(C)C)N(C)C,4.2534116
1628,BEFTIR,C26 H40 N12 O2,CN1CCN(C)C1=NC1=C(N=C2N(C)CCN2C)C(=O)C(=C(N=C2N(C)CCN2C)C1=O)N=C1N(C)CCN1C,4.848524589999999
1629,BEFVEN,C19 H11 Br1 N4 O3 S1,Brc1ccc(cc1)S(=O)(=O)NN=C1C(=O)C(=[N+]=[N-])c2cccc3cccc1c23,4.99328916
1630,BEFXAM,C16 H15 N3 O5,CCOC(=O)C(=CC1=C([O-])ON=[N+]1c1ccc(OCC)cc1)C#N,5.44581449
1631,BEFXEQ,C13 H10 N4 O3,Cc1ccc(cc1)[N+]1=NOC(=C1C=C(C#N)C(N)=O)[O-],5.636838409999999
1632,BEFXIU,C17 H11 N3 O3,O=C1Nc2ccccc2C1=CC1=C([O-])ON=[N+]1c1ccccc1,5.15410845
1633,BEFZIY,C18 H21 N3 O1 S1,Oc1ccc2ccccc2c1C=NNC(=S)NC1CCCCC1,5.4700326200000005
1634,BEFZUI,C22 H20 O2 S2,Cc1ccc(cc1)S(=O)C(=Cc1ccccc1)S(=O)c1ccc(C)cc1,6.37807654
1635,BEGBUK,C29 H36 N4 O2,CCN(CC)C(N1N=C(C(=O)c2ccccc2)C(=C1C)N(CC)CC)=C(C)C(=O)c1ccccc1,6.53644681
1636,BEGFEY,C36 H42 O4,COC(=O)C1=C(C(=O)OC)C2(C)C=CC(=CC3=C(C)C(C1C23)C1=CC(=C2C=C(C=CC(=C12)C)C(C)C)C)C(C)C,4.93832216
1637,BEGGOM,C24 H19 N5 O1,C1OC(=NC1c1ccccc1)c1ccccc1Nc1nncc(n1)c1ccccc1,5.857794859999999
1638,BEGJAA,C20 H14 S2,CC1=Cc2cc3cc4cc5C=C(C)Sc5cc4cc3cc2S1,4.23436362
1639,BEGJEE,C20 H14 S2,CC1=Cc2cc3cc4cc5SC(=Cc5cc4cc3cc2S1)C,4.55246472
1640,BEGJOO,C36 H26,Cc1ccc(cc1)C1=C(c2ccc(C)cc2)C(=C2C1=Cc1ccc3ccccc3c21)c1ccccc1,4.15599483
1641,BEGLAA,C16 H11 N5 O1,N1C(C=Nc2ccccc12)=NOc1cnc2ccccc2n1,6.0694994300000005
1642,BEGLIK,C40 H27 N1 O2,COc1ccc(cc1)C(=CC=C1C(=O)C=Cc2ccc3N(c4ccccc4)c4ccccc4c3c12)C#Cc1ccccc1,4.47464016
1645,BEGNUY,C12 H11 N1 O3,COc1ccccc1C=C1N=C(C)OC1=O,5.82350851