,ID,formula,smiles,HOMO_LUMO_gap
10741,HIVTUC,C15 H12 N4 S1,N(N=Cc1ccccn1)C1=NC(=CS1)c1ccccc1,5.95385105
10742,HIVVIS,C21 H18 N4 S1,CC(=NNC(=S)NN=C(C)C#Cc1ccccc1)C#Cc1ccccc1,5.475202780000001
10743,HIVVIU,C14 H13 Cl1 F3 N1 O2,CC(=O)C=CC1CC(O)(c2cc(Cl)ccc2N1)C(F)(F)F,6.357940120000001
10744,HIVVOZ,C45 H31 N1 O2,CCC(CC)N1C(=O)c2c(C1=O)c1c3ccccc3c3ccc4ccccc4c3c1c1c3c4ccccc4ccc3c3ccccc3c21,4.95356053
10745,HIVXES,C28 H24 F6 I2 N2 O4,CC(C)COc1cc(OCC(C)C)c(NC(=O)c2cc(I)c(F)c(F)c2F)cc1NC(=O)c1cc(I)c(F)c(F)c1F,5.92881657
10746,HIVXIV,C24 H18 F6 N4 O2 S1,CCOC(=O)c1ccccc1N=Nc1ccccc1NC(=S)Nc1cc(cc(c1)C(F)(F)F)C(F)(F)F,5.04662347
10747,HIVZET,C19 H14 Cl1 N1 O5,COC(=O)C(CC(=O)c1ccc(Cl)cc1)N1C(=O)C(=O)c2ccccc12,6.180794000000001
10748,HIWHAY,C14 H6 N2 S3,S1C=CC2=C1C1=C(C=CS1)C1=CC3=NSN=C3C=C21,4.92335589
10749,HIWHEC,C26 H30 N2 S3,CCCCCCC1=CC2=C(S1)C1=C(C=C(CCCCCC)S1)C1=CC3=NSN=C3C=C21,4.815054590000001
10750,HIWHIG,C26 H30 N2 S3,CCCCCCC1=CC2=C(S1)C1=CC3=NSN=C3C=C1C1=C2C=C(CCCCCC)S1,4.8251228
10751,HIWMUW,C13 H11 N1 O4,Nc1c(O)ccc(c1O)C(=O)c1ccccc1O,5.97181057
10752,HIWNAD,C13 H10 F1 N1 O3,Nc1c(O)ccc(c1O)C(=O)c1ccc(F)cc1,6.07058789
10753,HIWNEH,C15 H15 N1 O3,Cc1cccc(C)c1C(=O)c1ccc(O)c(N)c1O,6.26351661
10754,HIWPIN,C20 H26 N2 O2,CCCCNC(=O)c1cc(C(=O)NCCCC)c2cccccc12,5.21098024
10755,HIWRAH,C39 H34 Br1 N1 O4 S1,CCOC(=O)C12OC3(c4ccccc14)C(=C2C(=O)c1ccc(Br)cc1)N(CC)C(=C(C)SC3(c1ccccc1)c1ccccc1)C,5.73915322
10756,HIWREL,C39 H40 Br1 N1 O5 S1,CCOC(=O)C(=CC(=O)c1ccc(Br)cc1)C1(C)SC2(N(CC)C1=C)C(OC(=O)C2(CC)c1ccccc1)=C(CC)c1ccccc1,5.93997324
10757,HIWTOZ,C32 H24 N2 O1 S1,COc1ccc2N=C(Sc2c1)c1ccc(cc1)c1ccc(cc1)N(c1ccccc1)c1ccccc1,5.47601912
10758,HIWVAN,C31 H22 N2 S1,S1c2ccccc2N=C1c1ccc(cc1)c1ccc(cc1)N(c1ccccc1)c1ccccc1,5.0923386
10759,HIWVER,C31 H21 F1 N2 S1,Fc1ccc2N=C(Sc2c1)c1ccc(cc1)c1ccc(cc1)N(c1ccccc1)c1ccccc1,5.441732780000001
10763,HIWZAO,C33 H38 O9,CC(C)=CCC1C(=O)C2=C(OC(C)(C)C=C2)C(=O)C21OC(=O)C1=CC3(O)CC4C(C)(C)OC(CC=C(C)C)(C3=O)C14O2,5.24336179
10764,HIWZOC,C20 H28 O6,CC1(C)OCC(O1)C1OC2OC(C)(C)OC2C1(C=C)C1CCC=CC1=O,6.4994393200000005
10765,HIXFEC,C26 H36 P2,CC(C)P1(=C2c3ccccc3P(=C2c2ccccc12)(C(C)C)C(C)C)C(C)C,4.36252925
10766,HIXGEA,C9 H8 N2 S1,S=C(C1=CC=CN1)C1=CC=CN1,5.62241638
10767,HIXHAX,C27 H18 F6 S2,CC12SC(=CC3=C4C(=C(C=C(S1)c1ccccc1)C23C)C(F)(F)C(F)(F)C4(F)F)c1ccccc1,4.49368813
10768,HIXKII,C14 H16 N2 O2 S3,CCSC1C2COC(O2)C(=C(C#N)C#N)C1=C(SC)SC,5.83684209
10769,HIXKUV,C44 H30 O1,O=C1C(=C(c2ccccc2)C2=C(c3ccccc3)C(=C(c3ccccc3)C12c1ccccc1)c1ccccc1)c1ccccc1,5.28717211
10770,HIXLAB,C24 H28 N2,CC(C)(C)C(=N)c1c2ccccc2c(C(=N)C(C)(C)C)c2ccccc12,5.4186031
10771,HIXLAC,C44 H30 F2,FC1(F)C(=C(c2ccccc2)C2=C(c3ccccc3)C(=C(c3ccccc3)C12c1ccccc1)c1ccccc1)c1ccccc1,5.62459329
10772,HIXLEG,C44 H30 O1,O=C1C(=C(c2ccccc2)C2(c3ccccc3)C(=C(c3ccccc3)C(=C12)c1ccccc1)c1ccccc1)c1ccccc1,5.88065242
10773,HIXNIM,C33 H25 N3 O4,COC(=O)C1=C(OC(=O)C1=C1N(N=C(N1c1ccccc1)c1ccccc1)c1ccccc1)c1ccc(C)cc1,5.3685341499999994
10774,HIXPOV,C24 H20 N2 O5,CCOC(=O)C1=CN(c2ccccc2C1=O)c1c(cnc2ccccc12)C(=O)OCC,5.7696299699999996
10775,HIXQOV,C22 H18 O2,COc1ccc(cc1)c1c2ccccc2cc2ccc(OC)cc12,5.486903679999999
10776,HIYBOJ,C25 H20 Cl2 N6,Cc1ccc(cc1Cl)N1C=C(CN2N=C(C=C2Nc2ccccc2)c2ccccc2Cl)N=N1,5.62432117
10777,HIYDEY,C10 H11 N3 O1 S1,CCCN1C(=S)ON=C1c1ccccn1,6.08664261
10778,HIYFUT,C30 H36 N6 O8,O=C1N(C(=O)C(=C1N1CCOCC1)N1CCOCC1)c1ccc(cc1)N1C(=O)C(=C(N2CCOCC2)C1=O)N1CCOCC1,5.46894417
10779,HIYGAA,C36 H36 N6 O6,Cc1ccc(NC2=C(N3CCOCC3)C(=O)N(C2=O)c2cccc(c2)N2C(=O)C(=C(N3CCOCC3)C2=O)Nc2ccc(C)cc2)cc1,5.3791466
10780,HIYGOL,C23 H30 O8,COC1CC(CC(OC)C1OC)C1C2C(COC2=O)C(O)c2cc3OCCOc3cc12,5.57207531
10781,HIYJOQ,C18 H14 N4 O2,O=C(Nc1ccc(NC(=O)c2ccccn2)cc1)c1ccccn1,6.14868456
10782,HIYKEH,C18 H14 N4 O2,O=C(Nc1ccccc1)c1cnc(cn1)C(=O)Nc1ccccc1,5.806093230000001
10783,HIYKOP01,C12 H11 N3 S1,S=C(Nc1ccccc1)Nc1ccccn1,6.26759832
10784,HIYLIK,C14 H9 N1 O1,O=C1C=CC2=Nc3ccccc3C=CC2=C1,5.05914071
10785,HIYLIM,C30 H20,c1cc2ccc1c1ccc(cc1)c1ccc(cc1)c1ccc(cc1)c1ccc2cc1,4.153273700000001
10786,HIYLUW,C18 H21 N1 O4,COC(=O)C=C(C(=O)OC)C1=C(N(C)CC1)c1ccc(C)cc1,5.848542989999999
10787,HIYZOG,C27 H21 N2 O4 P1,O=C1N(Cc2cccc(CP(=O)(c3ccccc3)c3ccccc3)[n+]2[O-])C(=O)c2ccccc12,5.99439602
10790,HIZFEC,C19 H16 O3,COc1cc(C#CC#CC(C)(C)O)c(OC)cc1C#CC#C,5.7250033
10791,HIZMAH,C16 H14 N4 O1,CN1C(=O)C(=Nc2ccccc12)N=Nc1ccc(C)cc1,5.7701742
10792,HIZROA,C21 H14 N4,c1ccc(cc1)C1=NN(c2ccccn2)c2nc3ccccc3cc12,5.68826793
10793,HIZROY,C28 H42 N2 O2,CC(C)(C)c1cc(N=Nc2cc(cc(c2O)C(C)(C)C)C(C)(C)C)c(O)c(c1)C(C)(C)C,5.807453799999999
10794,HIZSOB,C41 H48 O2 S2,Cc1c2SC(=Cc3cc(cc(c3)C(C)(C)C)C(C)(C)C)C(=O)c2cc2C(=O)C(Sc12)=Cc1cc(cc(c1)C(C)(C)C)C(C)(C)C,5.2928865
10795,HIZSUH,C37 H40 O2 S2,CC(C)c1cccc(C(C)C)c1C=C1Sc2c(C)c3SC(=Cc4c(cccc4C(C)C)C(C)C)C(=O)c3cc2C1=O,5.788677949999999
10796,HIZTAO,C40 H46 O2 S2,CC(C)(C)c1cc(C=C2Sc3ccc4C(=O)C(Sc4c3C2=O)=Cc2cc(cc(c2)C(C)(C)C)C(C)(C)C)cc(c1)C(C)(C)C,5.20063991
10797,HIZTES,C36 H38 O2 S2,CC(C)c1cccc(C(C)C)c1C=C1Sc2ccc3C(=O)C(Sc3c2C1=O)=Cc1c(cccc1C(C)C)C(C)C,5.37098318
10799,HIZWIY,C18 H13 Br1 O2,CC1=Cc2ccccc2C2(Cc3cc(Br)ccc3O2)C1=O,6.007729590000002
10800,HMNPHT,C20 H16 O5,COc1cccc2C(=O)c3c(OC)c4CCCC(=O)c4cc3C(=O)c12,5.9704500000000005
10801,HMPIMP10,C21 H16 N2 O2,CC1=CC2=NC(=C(N2C=C1)c1ccccc1)C(=O)c1ccccc1O,6.19494392
10802,HMPTPO,C17 H15 N1 O2 S1,CN1C=CC=CC1=C1C=CC(=CS1(=O)=O)c1ccccc1,4.652602610000001
10803,HMPXPO,C20 H16 N1 O3 P1 S1,COc1ccc(cc1)P1(=O)Oc2ccccc2C(=S)N1c1ccccc1,6.1296365999999995
10804,HMPYQT,C18 H15 N1 O3,O=C1C=C2C(=O)N3CCc4cccc(c34)C32CCCC1C3=O,5.96446349
10805,HMPYTH,C6 H7 N1 O1 S1,CC1=CC=C(O)C(=S)N1,5.921741620000001
10806,HMSPIO,C19 H19 Cl1 N2 O2 S1,CC1=C2CCCCC2([N-]S(=O)(=O)c2ccc(Cl)cc2)[n+]2ccccc12,5.57044264
10807,HNPRYO,C20 H22 O2,CC12C=CC3=C4CCC(=O)C=C4CCC3C1CCC2(O)C#C,5.90323787
10808,HOBCOR,C36 H34 N2,CCCCN1c2ccc3C=Cc4ccc5N(CCCC)c6ccc(C=Cc7ccc1c(c7)c2c3)cc6c5c4,5.56200711
10809,HOBJEP,C16 H16 Br1 N3 O2,Brc1ccc(N2CCOCC2)c(NC(=O)c2ccccn2)c1,6.21752937
10810,HOBKOA,C29 H24 Br1 N1 O3 S1,Cc1ccc(cc1)S(=O)(=O)N=C1OC(=C(CC=C)C1=CC=C(Br)c1ccccc1)c1ccccc1,4.694236030000001
10812,HOBPOF,C20 H19 N3 O2,O=C(Nc1c(ccc2ccccc12)N1CCOCC1)c1ccccn1,6.1603854600000005
10813,HOBRAU,C22 H16 N2,Cc1cccc2c1nc1c(Nc3ccccc13)c2c1ccccc1,5.718200459999999
10815,HOBXON,C20 H24 N2 O4,OCCCNC(=O)C1=C(C=C(OC1=O)c1ccccc1)N1CCCCC1,5.9764365
10816,HOCFIR,C18 H14 Cl1 N3 O2,CC1=NN(C(=C1C(=O)C(=O)c1ccc(Cl)cc1)N)c1ccccc1,6.35413052
10817,HOCHOY,C26 H18 F1 N1 O3 S1,Cc1ccc(cc1)S(=O)(=O)NC(=O)C(=CC#Cc1ccc(F)cc1)C#Cc1ccccc1,5.9214695
10818,HOCKIW,C30 H21 Cl2 N5 O2,Clc1ccc(cc1)C(=O)C1=NN(C2NC1N(N=C2C(=O)c1ccc(Cl)cc1)c1ccccc1)c1ccccc1,5.64962776
10819,HOCKOC,C32 H25 Cl2 N5 O4,COc1ccc(cc1)C(=O)C1=NN(C2NC1N(N=C2C(=O)c1ccc(OC)cc1)c1ccc(Cl)cc1)c1ccc(Cl)cc1,5.73752054
10820,HOCKUG,C20 H18 O6 P2,CCOP1(=O)c2ccccc2C(=O)C1=C1C(=O)c2ccccc2P1(=O)OCC,5.816705669999999
10821,HOCKUI,C20 H17 Br2 N5 O2,CC(=O)C1=NN(C2NC1N(N=C2C(C)=O)c1ccc(Br)cc1)c1ccc(Br)cc1,5.9889537399999995
10822,HOCLUH,C24 H29 Cl1 O7,COC12OC3(C)C(C1C(=O)OC(C)C2C)C1=COC(=CC1=C(Cl)C3=O)C=CC(C)C(C)O,5.50431897
10823,HOCMES,C16 H18 N2,Cc1cccc(C)c1N=C1C=C(C)C(=N)C(=C1)C,5.6011915000000005
10824,HOCPAR,C12 H9 N3 O1,O=C1Nc2ccccc2N=C1C1=CC=CN1,5.65670272
10825,HOCSUQ,C32 H32 Br1 N1 O4,Brc1c2ccccc2c(C#Cc2ccc(cc2)N2CCOCCOCCOCCOCC2)c2ccccc12,5.07002526
10826,HOCVUR,C35 H35 Cl1 O6 S1,CCC(Cl)=C(CC)C(c1ccccc1)=C(c1ccccc1)C(C(=O)OC)=C(C=CS(=O)(=O)c1ccc(C)cc1)C(=O)OC,5.90242153
10827,HODDIO01,C14 H14 N2 O2,COc1cccc(C=Nc2ccccc2N)c1O,5.58731369
10828,HODDUA,C28 H22 N4,N1C(C(Nc2ccccc12)c1nc2ccccc2nc1c1ccccc1)c1ccccc1,4.91872996
10829,HODGIR,C14 H18 N2 O4 S1,CCCCNC(=O)C1=C(O)c2ccccc2S(=O)(=O)N1C,6.68910267
10830,HODHOY,C17 H11 N3,c1ccc(cc1)N=C1c2cccnc2c2ncccc12,6.222155299999999
10831,HODMUJ,C26 H32 Br1 N5 O1 S1,CC(C)Cc1ccc(cc1)C(C)C1=NN(CN2CCOCC2)C(=S)N1N=Cc1ccc(Br)cc1,5.951129910000001
10832,HODNOE,C21 H22 N4 O6 S1,COc1cc(cc(OC)c1OC)C1=NN2C(=NN=C2c2cc(OC)c(OC)c(OC)c2)S1,5.79656925
10833,HODNUK,C14 H12 Cl1 N1 O2,COc1ccc(O)c(C=Nc2ccccc2Cl)c1,6.0401111400000005
10834,HODPAU,C17 H4 F10 O3,OC(=CC(=O)C=C(O)c1c(F)c(F)c(F)c(F)c1F)c1c(F)c(F)c(F)c(F)c1F,6.3144019
10835,HODQAV,C14 H8 Cl3 F1 N2,Fc1ccc(cc1)C(N=Nc1ccc(Cl)cc1)=C(Cl)Cl,5.84446128
10836,HODQOH,C17 H15 N5 O3 S1,COc1cc(cc(OC)c1OC)C1=NN=C2SC(=NN12)c1cccnc1,5.53533995
10837,HODRAW,C20 H19 N1 O6,COc1ccc(CNC(=O)COC2=CC(=O)Oc3ccccc23)c(OC)c1,5.92065316
10838,HODRIC,C17 H17 N5 O1,CC1N=NC(=NN1C(=O)Nc1ccccc1C)c1ccccc1,5.84391705
10839,HODROI,C30 H28 N6 O2,CN1N(c2ccccc2)C(=O)C(=C1C)N=Cc1ccc(cc1)C=NC1=C(C)N(C)N(c2ccccc2)C1=O,5.43901165
10840,HODSID,C24 H18 O10,COC(=O)C=C(C(=O)OC)c1c(O)c(cc2c1OC(=O)C=C2C(=O)OC)C(=O)c1ccccc1,6.21317555
10841,HODSOI,C17 H15 N3 O2,CCOc1ccccc1N=Nc1ccc(O)c2ncccc12,5.5070401
10842,HODTEC,C48 H37 N3,CCCCN1c2ccccc2c2cc(ccc12)C(C=Cc1ccc(cc1)C(c1ccccc1)=C(c1ccccc1)c1ccccc1)=C(C#N)C#N,5.04580713
10843,HODTIG,C48 H36 Br1 N3,CCCCN1c2ccc(Br)cc2c2cc(ccc12)C(C=Cc1ccc(cc1)C(c1ccccc1)=C(c1ccccc1)c1ccccc1)=C(C#N)C#N,5.14784982
10844,HODWAB,C14 H14 B1 F2 N3 O2,COc1ccc(cc1)C1=N[N+](=CC2=CC=CN2C)[B-](F)(F)O1,5.735071509999999
10845,HODWEF,C14 H14 B1 F2 N3 O2,COc1ccc(cc1)C1=N[N+](=CC2=CC=CN2C)[B-](F)(F)O1,5.62622598
10846,HODWIJ,C15 H17 B1 F2 N4 O1,CN(C)c1ccc(cc1)C1=N[N+](=CC2=CC=CN2C)[B-](F)(F)O1,5.1807756000000005
10847,HODWOP,C15 H17 B1 F2 N4 O1,CN(C)c1ccc(cc1)C1=N[N+](=CC2=CC=CN2C)[B-](F)(F)O1,5.277648129999999
10849,HOFDUC,C14 H13 N3 O2,CC1=NN(CN2C(=O)c3ccccc3C2=O)C(=C1)C,6.19412758
10850,HOFFAL,C30 H31 N3 O2 S1,Cc1ccc(cc1C)C(=O)C1C(C2CCCN2C21C(=O)N(CC=C)c1ccccc21)C1=C(C)N=CS1,6.59794453
10851,HOFFEO,C26 H26 N2 O4,O=C1N(C2CCCCC2)C(=O)c2ccc3C(=O)N(C4CCCCC4)C(=O)c4ccc1c2c34,5.65806329
10852,HOFGUE,C13 H15 N2 O5 P1 S1,COP(=S)(OC)N(C)NC(=O)C1=COc2ccccc2C1=O,6.26977523
10853,HOFHAL,C30 H26 N2 O6 S1,COC(=O)C=C(C(=O)OC)C1=C2N(c3ccccc3C2=C(C)N1Cc1ccccc1)S(=O)(=O)c1ccccc1,5.96010967
10854,HOFHIT,C16 H16 N2 O1 S1,Cc1ccc(NC(=S)NC(=O)c2ccccc2)cc1C,5.95412316
10856,HOFJAO,C12 H9 N3 O2,O=C1N(CN2C=CN=C2)C(=O)c2ccccc12,6.06106391
10857,HOFJUJ,C16 H11 N1 O2,O=C1Nc2ccccc2C1=CC(=O)c1ccccc1,5.50241417
10858,HOFKAQ,C18 H15 N1 O3,COc1ccc(cc1)C(=O)C=C1C(=O)N(C)c2ccccc12,5.5698984
10859,HOFKEU,C16 H10 Cl1 N1 O2,Clc1ccc(cc1)C(=O)C=C1C(=O)Nc2ccccc12,5.471393190000001
10860,HOFLET,C22 H20 O2,O=C1c2ccccc2CCC21CCC1=C(O2)c2ccccc2CC1,6.14487497
10861,HOFLIX,C26 H22 O6,COCOc1c(C=O)cc2ccccc2c1c1c(OCOC)c(C=O)cc2ccccc12,5.88119665
10862,HOFLUL,C21 H22 O4,COc1ccc(cc1)C(=C1OC(C)(C)CC1=O)c1ccc(OC)cc1,5.79248754
10863,HOFNAS,C29 H24 F2 N2 O2,Fc1ccc(cc1)C=CC(=O)C1C(C2CCCN2C21C(=O)Nc1ccccc21)c1ccc(F)cc1,6.2104544100000005
10864,HOFNEV,C17 H14 N2 O1,Nc1ccccc1N=Cc1c(O)ccc2ccccc12,5.26894049
10865,HOFNIB,C31 H18 O1 S2,O=C1Sc2cc3cc4c(cc3cc2S1)c(c1ccccc1)c1ccccc1c4c1ccccc1,4.36062445
10866,HOFNUM,C30 H22 N4 O2 S2,O=C(NC(=S)Nc1ccccc1NC(=S)NC(=O)c1ccc2ccccc2c1)c1ccc2ccccc2c1,5.506223760000001
10867,HOFPID,C31 H20 S2,C1Sc2cc3cc4c(cc3cc2S1)c(c1ccccc1)c1ccccc1c4c1ccccc1,4.40579536
10868,HOFPOJ,C20 H19 N1 O2,CC(=CC=C1C(=O)Oc2ccccc12)C1=C2CCCCN2C=C1,5.0400927399999995
10869,HOFQID,C15 H13 N3 O1,O=C(NN=CC=Cc1ccccc1)c1ccncc1,5.88827161
10870,HOFSOM,C37 H28 O4,COc1ccc(cc1)C=C(OC(=O)c1ccccc1)C=C(c1ccccc1)c1ccccc1C(=O)c1ccccc1,5.923374300000001
10871,HOFTAY,C20 H21 N3 O1,CCN(CC)c1ccc(cc1)N=Nc1c(O)ccc2ccccc12,5.00444583
10872,HOFTIF,C18 H12 O4,CC(=O)Oc1ccc2C3OC3c3cccc4C5OC5c1c2c34,7.01155758
10874,HOFYIN,C14 H10 F3 N1 S1,FC(F)(F)c1cccc(c1)C(=S)Nc1ccccc1,6.11548668
10876,HOGKEW,C33 H27 Cl1 N2 O3 S1,CN1c2ccccc2C2=C1C(CC(=O)c1ccccc1)N(C=C2c1ccc(Cl)cc1)S(=O)(=O)c1ccc(C)cc1,5.91521088
10877,HOGKIA,C33 H27 Br1 N2 O3 S1,CN1c2ccccc2C2=C1C(CC(=O)c1ccc(Br)cc1)N(C=C2c1ccccc1)S(=O)(=O)c1ccc(C)cc1,5.76582038
10878,HOGKOG,C33 H26 Cl2 N2 O3 S1,CN1c2ccccc2C2=C1C(CC(=O)c1ccc(Cl)cc1Cl)N(C=C2c1ccccc1)S(=O)(=O)c1ccc(C)cc1,6.077934969999999
10879,HOGQOL,C18 H21 N5 O6 S1,Cc1ccc(cc1)S(=O)(=O)Oc1c(ccc2[n+]([O-])nc(N)nc12)N(CCO)CCO,5.82459697
10881,HOGYAF,C26 H22 N4 O2,CC(C)(C)OC(=O)N1C=CC=C1CC(c1ccccc1)c1cc(C#N)c(cc1C#N)C#N,5.66649883
10882,HOHCUE,C12 H14 F5 N1 O2 S2,CC(C)(C)S(=O)NC(C(F)(F)F)C(F)(F)C(=O)C1=CC=CS1,5.77833762
10883,HOHGUH,C34 H20 N4 O2,O1C(=NN=C1c1ccc2cc(ccc2c1)C1=NN=C(O1)c1ccc2ccccc2c1)c1ccc2ccccc2c1,5.6681315
10884,HOHMIC,C22 H18 O3,COc1ccc(cc1)C=C1Oc2ccccc2c2cc(OC)ccc12,5.61125971
10886,HOHWUZ,C26 H22 N2 O2 S1,Cc1ccc(cc1)S(=O)(=O)N1C=C(Cc2ccccc2)c2c(N)cc3ccccc3c12,5.81371242
10887,HOHXAG,C27 H24 N2 O3 S1,COc1cccc(CC2=CN(c3c4ccccc4cc(N)c23)S(=O)(=O)c2ccc(C)cc2)c1,5.99113065
10888,HOHXEH,C27 H26 N2 O5,COC(=O)C1=C2Nc3ccccc3C32CCN(CCCC(=C1)C3=O)C(=O)OCc1ccccc1,5.75765697
10889,HOHXIL,C19 H20 N2 O3,COC(=O)C1=C2Nc3ccccc3C32CCN2CCCC(=C1)C32O,6.09752716
10890,HOHXIO,C40 H21 F5 N2 O1 S1,OC1(c2ccccc2)c2ccc3c4ccccc4C(=C(C4=CC=C(N4)C(=C4C=CC1=N4)c1c(F)c(F)c(F)c(F)c1F)C1=CC=CS1)c3c2,4.196267689999999
10891,HOHXOU,C40 H18 F5 N2 O1 P1 S1,Fc1c(F)c(F)c(c(F)c1F)C1=C2C=CC3=C(c4ccccc4)c4ccc5c6ccccc6C6=C(C7=CC=CS7)C7=CC=C1N7P(=O)(N23)c4c56,3.9344941600000003
10892,HOHYOV,C35 H25 B1 F2 N2 O2,F[B-]1(F)OC(=CC(O1)=C1[NH+]=C(C=C1)c1ccccc1c1ccccc1)C1=CC=C(N1)c1ccccc1c1ccccc1,5.07383485
10893,HOJBUG,C20 H19 F6 N3 O2,COc1cccc(c1)N1C=C(C=C1C(F)(F)F)N1CCCNC(C1)=CC(=O)C(F)(F)F,6.12147318
10894,HOJCIU,C21 H21 N1 O3 S1,CCOc1ccc(cc1)N(C1=CC=C(S1)C=O)c1ccc(OCC)cc1,6.04500918
10896,HOJFAQ,C52 H37 N5,c1ccc(cc1)N(c1ccccc1)c1ccc(cc1)c1cc(nc(n1)N1c2ccccc2c2ccccc12)c1ccc(cc1)N(c1ccccc1)c1ccccc1,5.381867740000001
10897,HOJFES,C34 H32 N4 S8,C(Cc1ccccn1)SC1=C(SCCc2ccccn2)SC(S1)=C1SC(=C(SCCc2ccccn2)S1)SCCc1ccccn1,5.52717653
10898,HOJFIW,C30 H28 N8 S8,C(Cc1cnccn1)SC1=C(SCCc2cnccn2)SC(S1)=C1SC(=C(SCCc2cnccn2)S1)SCCc1cnccn1,5.13968641
10899,HOJFOC,C15 H14 N4 S5,S=C1SC(=C(SCCc2cnccn2)S1)SCCc1cnccn1,5.95058568
10900,HOJMAW,C23 H17 Br1 O1,CC12C=C(c3ccccc3)C(=C1C=C(Br)C=CC2=O)c1ccccc1,5.0964203
10901,HOJMEA,C23 H18 O1,CC1=CC(=C(c2ccccc2)C21C=CC=CC2=O)c1ccccc1,5.57534068
10903,HOJNID,C17 H24 S10,CSC1=C2SCCCSCCCSCCCSC3=C(SC)SC(=C(S1)S2)S3,5.66513826
10904,HOJSEF,C12 H10 N2 O4 S1,Cc1ccc2C(=O)C3=C(NCCS3(=O)=O)C(=O)c2n1,5.698336139999999
10905,HOJTEH01,C22 H14 Cl1 N3,Clc1ccc(cc1)C1=NC2=Nc3ccccc3N2C(=C1)c1ccccc1,5.61534142
10906,HOJVIM,C20 H14 O2,CC(=O)c1ccc(cc1)C#CC#Cc1ccc(cc1)C(C)=O,5.75330314
10907,HOJVIO,C35 H38 N2 O3,CCCCCCOc1ccc(cc1)c1cnc2c(c1)C(=O)c1cc(cnc21)c1ccc(OCCCCCC)cc1,5.253430000000001
10908,HOJVOS,C22 H18 O2,CCC(=O)c1ccc(cc1)C#CC#Cc1ccc(cc1)C(=O)CC,5.70976492
10909,HOJVOU,C39 H46 N2 O3,CCCCCCCCOc1ccc(cc1)c1cnc2c(c1)C(=O)c1cc(cnc21)c1ccc(OCCCCCCCC)cc1,5.165537220000001
10910,HOJVUA,C41 H50 N2 O3,CCCCCCCCCOc1ccc(cc1)c1cnc2c(c1)C(=O)c1cc(cnc21)c1ccc(OCCCCCCCCC)cc1,5.214789830000001
10911,HOJVUY,C30 H18 O2,O=C(c1ccccc1)c1ccc(cc1)C#CC#Cc1ccc(cc1)C(=O)c1ccccc1,5.70541111
10912,HOJWAH,C47 H62 N2 O3,CCCCCCCCCCCCOc1ccc(cc1)c1cnc2c(c1)C(=O)c1cc(cnc21)c1ccc(OCCCCCCCCCCCC)cc1,5.28390675
10913,HOJYIR,C17 H10 N2 O2,O=C1c2ccccc2C(=O)C1=CC1=NNc2ccccc12,5.766908839999999
10914,HOKBAN,C24 H16 Br2 N4 O4,COC(=O)C1CC2=CNc3c(Br)ccc(N1C1=Nc4c(Br)ccc5nc(cc1c45)C(=O)OC)c23,4.72063108
10915,HOKGAS,C56 H34,c1ccc(cc1)c1cccc2c3ccccc3c3C4=CC=CC=CC4=C(C4=C5C=CC=CC=C5c5c6ccccc6c6cccc(c7ccccc7)c6c45)c3c12,4.241710699999999
10916,HOKGEW,C28 H16,C1=CC=C2C(=C3c4ccccc4c4cccc5c6ccccc6c2c3c45)C=C1,4.35599852
10917,HOKGIA,C56 H38,c1ccc(cc1)c1cccc(c2ccccc2)c1C1=C(C2=CC=CC=CC2=C1)C1=C(C=C2C=CC=CC=C12)c1c(cccc1c1ccccc1)c1ccccc1,4.72988295
10918,HOKKIC,C10 H6 F1 N1 O2,Fc1ccc(cc1)N1C(=O)C=CC1=O,6.28065978
10919,HOKLAU,C17 H17 N1 O1,CN(C)c1ccc(C=CC(=O)c2ccccc2)cc1,5.487720019999999
10920,HOKLOI,C24 H16 Cl8 O4,COC1(OC)C2(Cl)C(=C(Cl)C1(Cl)C1=CC(C=C21)=C1C=C2C(=C1)C1(Cl)C(=C(Cl)C2(Cl)C1(OC)OC)Cl)Cl,5.4708489700000005
10921,HOKXIO,C32 H28 N4,CC1=CC(=Nc2ccccc2NC(=CC(=Nc2ccccc2N1)C)c1ccccc1)c1ccccc1,5.36091496
10922,HOKXUA,C26 H24 N2 O2,CC(Nc1ccccc1NC(C)=CC(=O)c1ccccc1)=CC(=O)c1ccccc1,6.06188025
10923,HOKYUE,C42 H22 O6,C1Oc2ccc3ccccc3c2c2c(O1)c1Oc3cccc4c3c3c(Oc5cccc2c5c13)c1OCOc2ccc3ccccc3c2c41,4.89451182
10924,HOLDAP,C11 H15 N3 O2 S1,COc1ccc(C=NNC(N)=S)c(OC)c1C,5.9399732400000005
10925,HOLDIX,C17 H19 N3 O2 S1,COc1ccc(C=NNC(=S)Nc2ccccc2)c(OC)c1C,5.99956618
10926,HOLFEU,C17 H13 N1 O1,O=C1Nc2ccccc2C1=CC=Cc1ccccc1,5.2901653699999995
10927,HOLGEV,C26 H25 N1 O6,Cc1ccc(NCC(O)COc2cc(O)c3C(=O)c4c(O)cc(C)cc4C(=O)c3c2)c(C)c1,4.59654716
10928,HOLGOF,C17 H10 N4 O1,O=C(N=Cc1ccc(cc1)C#N)N=Cc1ccc(cc1)C#N,6.249910920000001
10929,HOLHIA,C19 H17 Cl1 N2 O5 S1,CCOC(=O)C1=C(C)N=C2SC(=CC(=O)OC)C(=O)N2C1c1ccc(Cl)cc1,5.72636387
10930,HOLLAW,C15 H13 N5,Nc1nccc(n1)C1=NCCC2=C1Nc1ccccc21,5.826501769999999
10931,HOLLIE,C22 H22 Br1 N1 O1 S2,CC1(C)CC(=O)C(=C(C1)Nc1ccc(Br)cc1)C(=S)SCc1ccccc1,6.02813813
10932,HOLLOK,C26 H38 Cl1 N1 O1 S2,CCCCCCCCCCCSC(=S)C1=C(CC(C)(C)CC1=O)Nc1ccc(Cl)cc1,6.15439896
10933,HOLLUQ,C26 H38 Br1 N1 O1 S2,CCCCCCCCCCCSC(=S)C1=C(CC(C)(C)CC1=O)Nc1ccc(Br)cc1,6.1399769200000005
10934,HOLMEB,C17 H19 Cl2 N1 O2 S2,CC1(C)CC(=O)C(=C(C1)Nc1ccc(Cl)cc1Cl)C(=S)SCCO,6.117663589999999
10935,HOLMUQ,C30 H24 N6,CCN(CC#CC#CCN(CC)c1ccc(cc1)C=C(C#N)C#N)c1ccc(cc1)C=C(C#N)C#N,5.57261954
10936,HOLNEC,C24 H19 Br1 S1,CC1(SC(=CC(=C1)c1ccc(Br)cc1)c1ccccc1)c1ccccc1,5.98106243
10937,HOLPED,C22 H20 N4 S6,CCN1C(=S)N(c2ccccc2)C2=C1SSSSC1=C2N(C(=S)N1CC)c1ccccc1,5.3600986299999995
10938,HOLQUX,C20 H25 N3 O7,CCCC1=C(NC(=C1C(=O)OCC)C=C1C(=O)N(C)C(=O)N(C)C1=O)C(=O)OCC,5.563911900000001
10939,HOLREG,C36 H25 N1 O3,COc1ccccc1N1C(c2c3ccccc3cc3ccccc23)C2(C1=O)c1ccccc1Oc1ccccc21,5.341594880000001
10940,HOLSUY,C23 H25 N5 O5,CN(C)c1ccc(cc1)N=Nc1ccc(cc1)C1=CN(C2CC(O)C(CO)O2)C(=O)NC1=O,5.2305724399999995
10941,HOLTOS,C7 H3 Cl1 N4,ClC1=NC=CNC1=C(C#N)C#N,5.53261881
10942,HOLTUY,C18 H18 N2 O4 S1,CN1C(=C(O)c2ccccc2S1(=O)=O)C(=O)Nc1cccc(C)c1C,5.95548374
10943,HOLXAJ,C17 H12 O3 S1,CC1=C(Sc2ccccc2O)C(=O)c2ccccc2C1=O,5.756296390000001
10944,HOLXEN,C17 H12 O3 S1,CC1=C(Sc2ccc(O)cc2)C(=O)c2ccccc2C1=O,5.042541760000001
10945,HOLYAJ,C18 H19 O5 P1,COC(=O)C([O-])=C(C(=O)OC)[P+]1(C=C(C)C(=C1)C)c1ccccc1,5.71575143
10946,HOLZIT,C28 H18 Cl2 O1 S2,Clc1ccc(cc1)C1C(=C2SCCS2)C(=O)c2cc3ccc(Cl)cc3c(c3ccccc3)c12,5.72609176
10947,HOLZUF,C28 H19 Cl1 O5 S2,Clc1ccc2cc3C(=O)C(=C(c4ccccc4)c3c(c3ccccc3)c2c1)C1S(=O)(=O)CCS1(=O)=O,5.8349373
10948,HOMCIX,C17 H21 N1 O3,CCCCN1CC(C)(CC(=O)c2ccccc2)C(=O)C1=O,6.86760935
10949,HOMFAS,C12 H8 B2 F4 N2 O2,F[B-]1(F)OC2=C(O[B-](F)(F)[n+]3ccccc23)c2cccc[n+]12,5.21016389
10950,HOMFIB,C20 H25 N1 O8,CCCC1=C(NC(=C1C(=O)OCC)C=C1C(=O)OC(C)(C)OC1=O)C(=O)OCC,5.471393190000001
10951,HOMLIH,C31 H17 N1 O1 S1,Oc1ccc(cc1C1=Nc2ccccc2S1)C#Cc1ccc2ccc3cccc4ccc1c2c34,5.2711174
10952,HOMLON,C39 H25 N1 O1 S1,Cc1cccc(C)c1c1cc(O)c(cc1C#Cc1ccc2ccc3cccc4ccc1c2c34)C1=Nc2ccccc2S1,5.16036707
10953,HOMLUT,C39 H25 N1 O1 S1,Cc1cccc(C)c1c1ccc2ccc3c(ccc4ccc1c2c34)C#Cc1ccc(O)c(c1)C1=Nc2ccccc2S1,5.14159121
10954,HOMMAA,C32 H19 N1 O1 S1,COc1ccc(cc1C1=Nc2ccccc2S1)C#Cc1ccc2ccc3cccc4ccc1c2c34,5.13533259
10955,HOMQAB,C25 H17 Br1 N2 O2,CN1C(=O)C(=NC2=C1C=CC=C2)C1=C(C=C(O1)c1ccc(Br)cc1)c1ccccc1,5.2632261
10956,HOMQIL,C18 H13 F1 O2,Fc1ccccc1C=C1OC(=O)C(=C1)Cc1ccccc1,5.8784755099999995
10957,HOMQUX,C16 H16 Br1 N1 O4,CCOC(=O)C1=C2C=CC(=CC=C2C(=C1N)C(=O)OCC)Br,5.38458888
10958,HOMRAE,C16 H15 Cl1 O4,CCOC(=O)C1=C2C=CC=CC=C2C(=C1Cl)C(=O)OCC,5.47574702
10959,HOMREG,C30 H22 O4,Cc1c(C)c(O)c(C2=C3c4ccccc4C=C3c3c(O2)c(C)c(C)c(O)c3C#C)c(C#C)c1O,5.35710538
10960,HOMREI,C16 H17 N1 O4,CCOC(=O)C1=C2C=CC=CC=C2C(=C1N)C(=O)OCC,5.57017052
10961,HOMRIM,C16 H16 O5,CCOC(=O)C1=C2C=CC=CC=C2C(=C1O)C(=O)OCC,5.58323198
10962,HOMROS,C16 H15 Br1 O4,CCOC(=O)C1=CC(=C2C=CC(=CC=C12)Br)C(=O)OCC,5.363908220000001
10963,HOMRUY,C16 H16 O4,CCOC(=O)C1=C2C=CC=CC=C2C(=C1)C(=O)OCC,5.416970419999999
10964,HOMSIN,C8 H10 N2 O2,[NH3+]C(Cc1ccccn1)C(=O)[O-],7.20258151
10965,HOMXUF,C31 H20 Cl2 O2,Clc1ccc(cc1)C(=O)C=CC1=C(OC(=C1c1ccccc1)c1ccccc1)c1ccc(Cl)cc1,5.46976051
10966,HOMYAM,C32 H23 Cl1 O3,COc1ccc(cc1)C1=C(c2ccc(Cl)cc2)C(=C(O1)c1ccccc1)C=CC(=O)c1ccccc1,5.371527410000001
10967,HOMYEQ,C32 H23 Cl1 O2,Cc1ccc(cc1)C1=C(OC(=C1C=CC(=O)c1ccccc1)c1ccccc1)c1ccccc1Cl,5.74568395
10968,HOMYOA,C36 H46 N4 O4 S2,CC1=C2SC3=C(CCC4=C5SC6=C(C)C(=O)C(C)(C)NC6(C)CC5=NC(C)(C)C4=O)C(=O)C(C)(C)N=C3CC2(C)NC(C)(C)C1=O,5.881196650000001
10969,HOMZEO,C20 H19 Cl1 N2,CN1CCCC2=C1N1C=CC=C3CCC4=CC(=CC=C4C2=C13)Cl,5.87493803