,ID,formula,smiles,HOMO_LUMO_gap
11652,IDEPIR01,C17 H20 N2 O2,CCN(CC)c1ccc(C=[NH+]c2ccccc2O)c([O-])c1,5.3636361
11653,IDEPUF,C16 H17 N3 O1 S1,Oc1ccc2ccccc2c1C=NNC(=S)N1CCCC1,5.7908548500000006
11654,IDEQAM,C16 H17 N3 O2 S1,Oc1ccc2ccccc2c1C=NNC(=S)N1CCOCC1,5.8694957500000005
11655,IDEVEV,C16 H11 N1 O2,O=C1OC(=Nc2ccccc2)C(=C1)c1ccccc1,5.83276039
11657,IDEYUN,C14 H12 N2 O4 S1,COC(=O)c1ccccc1NC(=S)NC(=O)C1=CC=CO1,6.06432927
11658,IDIBEE,C18 H16 N2 O2,CN(C)c1ccc(cc1)C=C1C(=O)ON=C1c1ccccc1,5.14948251
11659,IDIBII,C26 H22 N2 O2,CN(C)c1ccc(C=Cc2ccc(cc2)C=C2C(=O)ON=C2c2ccccc2)cc1,4.29558924
11660,IDIBOO,C36 H24 N2 O2,O=C1ON=C(c2ccccc2)C1=Cc1ccc(C=Cc2ccc(cc2)N2c3ccccc3c3ccccc23)cc1,4.55328106
11661,IDIDAB,C13 H9 F3 O2 S1,FC(F)(F)CC1=CC(OC1=O)=CSc1ccccc1,5.62078369
11662,IDIDEH,C39 H41 O2 P1,CC1CCC(C(C)C)C(C1)OCP1(=O)C(=C(c2ccccc2)C(=C1c1ccccc1)c1ccccc1)c1ccccc1,5.53071402
11663,IDIDIJ,C13 H13 N1 O3,COC(C(C)=O)=C1N(C)C(=O)c2ccccc12,6.09915984
11664,IDIGUX,C23 H20 O5,CCOC(=O)C1=C(c2ccccc2)C(=C(C(=O)OCC)C1=O)c1ccccc1,5.69588712
11665,IDIJAG,C19 H17 N3 O3,CN1N(c2ccccc2)C(=O)C(=C1C)N=Cc1ccc(cc1)C(O)=O,5.6498998799999995
11666,IDIJIO,C19 H14 O6,COc1ccc(cc1)C(=O)C1=C(OC(=O)C1=O)c1ccc(OC)cc1,5.77697704
11667,IDIKIQ,C17 H14 O2,CC(=O)C(C)=C1Oc2ccc3ccccc3c2C=C1,5.3930244
11668,IDIREU,C30 H18 Cl1 N1 O1,Clc1cc(cc(c2ccccc2)c1N=C1C(=O)c2cccc3cccc1c23)c1ccccc1,5.720105249999999
11669,IDISAR,C18 H18 O4,COc1ccc(cc1)C=Cc1cc(OC)cc(OC)c1C=O,5.8860947
11670,IDITOF,C19 H17 N5,Cc1ccc(cc1)N=NC1=C(C)N(N=C1C)c1ccc(cc1)C#N,6.2161688
11671,IDIVAU,C24 H26 N4 O1,Cc1ccc(cc1)N1N=NC(=C1C)C(=O)C=Cc1ccc(cc1)N1CCCCC1,5.593028080000001
11672,IDIVEY,C21 H19 N3 O5,CCOC(=O)N1C(=O)N(CCCN2C(=O)c3ccccc3C2=O)c2ccccc12,5.95058568
11673,IDIVOI,C10 H11 N3 O2 S1,CC(=NNC(N)=S)c1ccc2OCOc2c1,6.0387505699999995
11674,IDIVUN,C14 H8 Cl4 N2 O1 S1,Clc1cccc(c1)C(=O)NC(=S)Nc1c(Cl)cc(Cl)cc1Cl,6.116303009999999
11675,IDIXAV,C24 H23 N1 O5 S1,CCOC(=O)C1=C(N)OC2=C(C1c1ccc(SC)cc1)C(=O)Oc1c(C)c(C)ccc21,5.77316745
11676,IDIXOK,C11 H5 I2 N1,IC1=C(C#N)C(=C2C=CC=CC=C12)I,4.6096086199999995
11678,IDIYOL,C17 H16 O4,COC(=O)C(=O)c1ccccc1COc1ccccc1C,6.20718905
11679,IDIYUS,C31 H23 N1 O1,O=C(c1ccccc1)c1ccc(cc1)c1ccc(cc1)N(c1ccccc1)c1ccccc1,5.4605086400000005
11680,IDIZAY,C17 H11 Br1 N2,Brc1c2ccccc2c(N2C=CN=C2)c2ccccc12,5.2798250499999995
11681,IDIZAZ,C37 H28 N2 O1,O=C(c1ccc(cc1)N(c1ccccc1)c1ccccc1)c1ccc(cc1)N(c1ccccc1)c1ccccc1,5.89180909
11682,IDIZED,C49 H36 N2 O1,O=C(c1ccc(cc1)c1ccc(cc1)N(c1ccccc1)c1ccccc1)c1ccc(cc1)c1ccc(cc1)N(c1ccccc1)c1ccccc1,5.47112107
11683,IDIZOM,C22 H23 N5 O2,O=C(NCCN(CCNC(=O)c1ccccn1)c1ccccc1)c1ccccn1,5.78650103
11684,IDOBUA,C17 H18 N4 O1 S2,S=C1OC(=NN1CN1CCN(CC1)c1ccccc1)C1=CC=CS1,5.87738706
11685,IDOCIP,C26 H34 F2 N6 S1,CCN1CCN(CC1)CN1N=C(N(N=Cc2c(F)cccc2F)C1=S)C12CC3CC(CC(C3)C1)C2,5.736976309999999
11686,IDODOV,C15 H16 N2 O4 S2,CCOC(=O)C1=C(N)SC(=C1C(=O)OCC)N=CC1=CC=CS1,5.410983910000001
11687,IDODUB,C20 H11 Cl2 F3 N4,FC(F)(F)c1cc(Cl)c(N2N=C(C=C2N=CC=Cc2ccccc2)C#N)c(Cl)c1,5.89888405
11688,IDOFEO01,C18 H14 Cl2,Clc1ccc(C=CC=CC=Cc2ccc(Cl)cc2)cc1,5.25479057
11689,IDOFOZ,C38 H40 N4 O3,CCN(CC)c1ccc2c(Oc3cc(ccc3C32N(N=Cc2cccc(CC=C)c2O)C(=O)c2ccccc32)N(CC)CC)c1,6.06596195
11690,IDOGIS,C31 H27 N1 O2,CC1(C)CC(=O)C2=C(C1)N(c1ccccc1)C1=C(C2Cc2ccccc2)C(=O)c2ccccc12,5.304587400000001
11691,IDOHAM,C8 H9 N3 S2,CSC(=S)NN=Cc1ccncc1,6.1002483000000005
11692,IDOHEQ,C41 H31 N3 O3,O=C1c2ccccc2OCC21C(C1CCCN1C12C(=O)c2cccc3cccc1c23)C1=CN(N=C1c1ccccc1)c1ccccc1,5.90677535
11693,IDOHUE,C17 H19 N1 O1,O=C1C=Cc2ccccc2C1=CNC1CCCCC1,5.75738485
11694,IDOJAO,C20 H16 N2 O2,CC(=O)C1=C(C)NC2=C(C1c1cccnc1)C(=O)c1ccccc21,5.47438644
11695,IDOJEQ,C22 H25 N1 O1,O=C1C=Cc2ccccc2C1=CNCC12CC3CC(CC(C3)C1)C2,5.75112623
11696,IDOJIW,C11 H12 N4 S2,CSc1ccc(cc1)C=NN1C(=S)NN=C1C,5.851264130000001