,ID,formula,smiles,HOMO_LUMO_gap
236,AFAZOZ,C14 H12 F6 N2 O4 S2,CC1=C(C[C-](S(=O)(=O)C(F)(F)F)S(=O)(=O)C(F)(F)F)C=[N+](N1)c1ccccc1,5.64391337
237,AFEBAO,C17 H14 N2 S1,CN1C(=S)C=NC(=C1c1ccccc1)c1ccccc1,5.73180615
238,AFEBAR,C14 H11 Cl1 F6 N2 O5 S2,CC1=[NH+]N(C(=C1C[C-](S(=O)(=O)C(F)(F)F)S(=O)(=O)C(F)(F)F)O)c1ccc(Cl)cc1,5.71874469
239,AFECUJ01,C6 H2 Cl2 N2 O2,ClC1=CC=C(Cl)C2=[N+]([O-])ON=C12,5.462957660000001
240,AFEJIG,C25 H18 N2 O1 S1,CCc1ccc(cc1)c1nc2ccccc2c2C(=O)N(C(=S)c12)c1ccccc1,5.17642178
241,AFEJIH,C18 H10 F3 N1 O4 S1,FC(F)(F)SC(=CN1C(=O)c2ccccc2C1=O)C(=O)Oc1ccccc1,6.28582995
242,AFEMUT,C26 H20 N6,c1ccc(cc1)C(=NN=Cc1ccncc1)C(=NN=Cc1ccncc1)c1ccccc1,6.26814255
243,AFEPEH,C21 H17 Br3 O3,COc1ccc(cc1)C(=O)C(Br)C(Br)c1ccc2c(Br)c(OC)ccc2c1,6.09943195
244,AFERAH,C10 H28 N2 O12 P4,OP(O)(=O)C[NH+](CCCCCC[NH+](CP(O)(O)=O)CP(O)(=O)[O-])CP(O)(=O)[O-],6.6542721
245,AFEVAJ,C18 H14 N2 O2,Cc1ccc2OC(=Nc2c1)C=CC1=Nc2cc(C)ccc2O1,5.80309997
247,AFEWEN,C21 H25 N1 O3,CC(CCC=C(C)C)C1=C(O)C(=O)C(=C(Nc2ccccc2)C1=O)C,4.92009053
248,AFEWEO,C19 H13 Br1 O1 S1,BrC1=C(SC=C1)C(=O)C=Cc1ccc(cc1)c1ccccc1,5.796297129999999
249,AFEWIR,C22 H27 N1 O3,CC(CCC=C(C)C)C1=C(O)C(=O)C(=C(NCc2ccccc2)C1=O)C,5.39792245
250,AFEXAL,C22 H16 N2 S2,CSc1cc(c2ccc(C)cc2)c2SC(=Nc2c1C#N)c1ccccc1,5.75411948
251,AFEXIT,C26 H16 N2,c1ccc2c(c1)nc1ccccc1c2c1c2ccccc2nc2ccccc12,5.57724548
252,AFEZES,C27 H26 N3 O1 P1,O=C1NC2C3CCC(C3)C2C1=NN=P(c1ccccc1)(c1ccccc1)c1ccccc1,6.13861635
253,AFICOK,C37 H27 Cl1 N2 O2 S1,Clc1ccccc1C1C2CSCN2C2(C(=O)c3cccc4cccc2c34)C21CCc1nc(ccc1C2=O)c1ccccc1,5.757929069999999
254,AFICUQ,C32 H25 Cl2 N3 O2,CN1CC(c2ccc(Cl)cc2Cl)C2(CCc3nc(ccc3C2=O)c2ccccc2)C21C(=O)Nc1ccccc21,6.30161255
255,AFIFUQ,C24 H22 N4 O3,CC12OC(CC3=CNc4ccccc34)(N=C1c1ccccc1NC2=O)C(=O)NCC=C,5.93153772
256,AFIFUR,C11 H7 N3 S2,S=C1N=C(N=C2SC=CN12)c1ccccc1,5.65670273
257,AFIGOM,C13 H14 O1 S1,CCCCC1=Cc2ccccc2C(=S)O1,6.0191583799999995
258,AFIHAA,C18 H14 N2 O2,CC(=O)c1cccc([NH+]=Nc2c([O-])ccc3ccccc23)c1,5.08662421
259,AFIHAB,C39 H49 N3 O1,Cc1cc(C)cc(NC2=C(C(=O)C(=CC(=C2)C(C)(C)C)C(C)(C)C)c2cc(N3CCCCC3)c3c(C)ccc(C)c3n2)c1,5.5835041
260,AFIJIJ,C31 H33 N1 O4,Cc1ccc(cc1)N1C2=C(C(c3ccc4OCOc4c3)C3=C1CC(C)(C)CC3=O)C(=O)CC(C)(C)C2,6.130452930000001
261,AFIJIK,C27 H27 Br1 F1 N1 O4,COC1CCC2(CC1)NC(=O)C(=C2OC(=O)C=Cc1ccc(F)cc1Br)c1cc(C)ccc1C,5.91602722
262,AFIJUV,C30 H24 N2 O4,COc1ccccc1NC(=O)c1cccc2cc3cccc(C(=O)Nc4ccccc4OC)c3cc12,5.4692162799999995
263,AFIJUW,C24 H25 N1 O3,COc1ccc(cc1)C=C1CN(CC=C)CC(=Cc2ccc(OC)cc2)C1=O,6.00174309
264,AFIKAC,C18 H17 N3 O4,ON=C(CN(CC(=NO)C1=CC=CO1)c1ccccc1)C1=CC=CO1,5.94677609
265,AFIKOR,C39 H36 N2 O4 S1,COc1ccc(cc1)C=C1CN(CC=C)CC2(C(C3CSCN3C32C(=O)c2cccc4cccc3c24)c2ccc(OC)cc2)C1=O,6.1105886300000005
266,AFIMAD,C21 H15 N7 S1,Cc1ccc(cc1)N=C(N1N=Nc2ccccc12)C(=S)N1N=Nc2ccccc12,5.44690294
267,AFIMAF,C31 H27 F3 O7,CCCCCCCOc1ccc(cc1)C(=O)Oc1ccc(OC(=O)C2=Cc3ccc(cc3OC2=O)C(F)(F)F)cc1,5.8909927500000006
268,AFIMEH,C26 H16 N8 S1,S1c2ccccc2N=C(N2N=Nc3ccccc23)C(=Nc2ccccc12)N1N=Nc2ccccc12,5.975348039999999
269,AFIMIL,C28 H20 N8 O1 S1,CCOc1ccc2N=C(N3N=Nc4ccccc34)C(=Nc3ccccc3Sc2c1)N1N=Nc2ccccc12,5.99140276
270,AFIMUX,C30 H24 O2 S2,CC1=C(C=C(S1)c1ccccc1)C1=C(C(=O)C(=C(C)C1=O)C)C1=C(C)SC(=C1)c1ccccc1,4.71600514
271,AFINAE,C22 H18 O2 S2,CC1=CC2=C3C(=O)c4ccccc4C(=O)C3=C3C=C(C)SC3(C)C2(C)S1,4.63682001
272,AFINEK,C24 H26 N4,CCN(CC)c1ccc(cc1)C1CC(=NN1c1ccccc1)c1ccccn1,5.80255574
273,AFINIO,C19 H10 Cl1 N1 O4,ClC1=C(Nc2ccc3OC(=O)C=Cc3c2)C(=O)c2ccccc2C1=O,4.91029443
274,AFIPAI,C42 H32 N6 O1,O=C(NN(c1ccccc1)c1nc2ccccc2nc1C1C(c2ccccc2)C(=NN1c1ccccc1)c1ccccc1)c1ccccc1,4.98539786
275,AFIPEM,C17 H14 N2 O2,Cc1ccc(O)c([NH+]=Nc2c([O-])ccc3ccccc23)c1,4.8406332800000005
276,AFIPIQ01,C9 H9 N3 O2 S1,NC(=S)NC(=O)NC(=O)c1ccccc1,5.76201079
277,AFIQAK,C21 H15 Br1 N2 O2,Oc1ccc(Br)cc1C=NN=C(c1ccccc1)C(=O)c1ccccc1,6.222427419999999
278,AFIQUD,C18 H18 N4 O1 S1,NC1=C(SC(=C1C1=Nc2ccccc2O1)NC1CCCCC1)C#N,6.11439822
279,AFIRUF,C30 H22 N2 O4,Oc1cc(cc(O)c1C1=C([O-])C(=[N+](c2ccccc2)c2ccccc2)C1=O)N1CCc2ccccc12,4.2106897199999995
280,AFISIS,C16 H14 O4,OC1(CCc2ccccc2)CC2=CC(=O)OC2=CC1=O,6.072220570000001
281,AFISOZ,C24 H21 N3 S1,Cc1ccc(cc1)C(C)=NN=C1SC=C(N1c1ccccc1)c1ccccc1,5.97153844
282,AFIVOC,C15 H18 N4,CCN(CC)c1ccc(cc1)N=Nc1cccnc1,5.40526952
283,AFIWIX,C27 H25 N1 O3,CC(C)(C)N1OC(=C(C1c1ccccc1)C(=O)c1ccccc1)C(=O)c1ccccc1,6.36256606
284,AFIXAQ,C37 H32 F2 N2 O2,CN1CC(=Cc2ccccc2F)C(=O)C2(C1)C(C1CCCCN1C12C(=O)c2cccc3cccc1c23)c1ccccc1F,6.0093622700000004
285,AFIZUM,C24 H19 Br1 N2 O5 S1,COC(=O)C1=C(C)N=C2SC(=Cc3ccccc3Br)C(=O)N2C1c1ccc(OC(C)=O)cc1,5.60309629
286,AFOBEE,C13 H15 N3 S1,S=C1N=NC2(CCCCC2)N1c1ccccc1,5.9195647
287,AFOCOP,C12 H7 N3 O1,CN1C(=O)C(c2ccccc12)=C(C#N)C#N,5.252885769999999
288,AFOFIM,C16 H9 Br3 N2 O1,Oc1ccc2ccccc2c1N=Nc1c(Br)cc(Br)cc1Br,5.25451845
289,AFOHOU,C24 H19 Cl1 N2 O1,Cc1cccc2cc(C=CC(=O)c3c(C)nc4ccccc4c3C)c(Cl)nc12,5.87221689
290,AFOJAI,C20 H21 N3 O1,CCC(Nc1ccc(C)cc1)=C1C(=NN(C1=O)c1ccccc1)C,6.00446422
291,AFOJIQ,C24 H19 Cl1 N2 O2,COc1nc2ccc(Cl)cc2cc1C=CC(=O)c1c(C)nc2ccccc2c1C,5.98378357
292,AFOJUC,C16 H11 Cl1 N2 O1,Clc1cccc([NH+]=Nc2c([O-])ccc3ccccc23)c1,5.021588999999999
293,AFOKIR,C25 H19 N1,c1ccc(cc1)C(=CC=Nc1cccc2ccccc12)c1ccccc1,5.60962702
294,AFOMOZ,C29 H16 F6 N2 S2,CC1=C(SC(=C1)c1ccc(cc1)C#N)C1=C(C2=C(C)C=C(S2)c2ccc(cc2)C#N)C(F)(F)C(F)(F)C1(F)F,5.43329725
295,AFOPOC,C17 H17 N1 O4,COc1cc(OC)c(C=CC(=O)c2ccccn2)cc1OC,5.3690783799999995
296,AFOQAQ,C19 H23 N3 O2,CCOC(=O)C(=NN(C)c1ccccc1)c1ccc(cc1)N(C)C,6.3187557199999995
297,AFOWEZ,C19 H14 Br1 N1 O3,COC(=O)C(=Cc1ccc(Br)cc1)C1=C(C=O)c2ccccc2N1,5.41805888
298,AFOWID,C19 H15 N1 O4,COC(=O)C(=Cc1ccc(O)cc1)C1=C(C=O)c2ccccc2N1,5.92092527
299,AFOYEC,C18 H21 N3 O2,CCOC(=O)C(=NNc1ccccc1)c1ccc(cc1)N(C)C,5.574252230000001
300,AFUGIT,C12 H11 F3 N4 O2 S1,CCNC(=S)NN=C1C(=O)Nc2ccc(OC(F)(F)F)cc12,5.31900944
301,AFUGOZ,C17 H20 F3 N5 O3 S1,CCNC(=S)NN=C1C(=O)N(CN2CCOCC2)c2ccc(OC(F)(F)F)cc12,5.1508430700000005
302,AFUGUE,C21 H15 Cl3 N2,Clc1ccc(cc1)C1CC(=NN1c1ccccc1)c1ccc(Cl)cc1Cl,5.72554753
303,AFUGUF,C17 H13 F3 N4 O2 S1,FC(F)(F)Oc1ccc2NC(=O)C(=NNC(=S)NCc3ccccc3)c2c1,5.125264379999999
304,AFUJEQ,C22 H19 N2 P1,C(Nc1cccc2cccnc12)P(c1ccccc1)c1ccccc1,5.94949723
305,AFUMUL,C17 H18 N4 O1 S1,COc1ccc(cc1)C1CC(=NN1C(N)=S)c1ccc(N)cc1,5.927183889999999
306,AFUNAS,C18 H18 Cl1 N1 O4,CCCC(=O)N(C(=O)CCC)C1=C(Cl)C(=O)c2ccccc2C1=O,6.422158980000001
307,AFUNIA,C21 H20 O6,CCOC(=O)C(=O)C=C(O)c1ccc(cc1)c1cccc(c1)C(=O)OCC,5.71194184
308,AFUSAW,C20 H8 F6 N2 O2,FC(F)(F)c1ccc2N=C3C=C4Oc5cc(ccc5N=C4C=C3Oc2c1)C(F)(F)F,4.21667622
309,AFUSEA,C34 H32 N4 O4,CCNc1cc2Oc3cc(NCC)c(C)cc3C3(N(N=Cc4ccccc4C(O)=O)C(=O)c4ccccc34)c2cc1C,5.68717947
310,AFUTED,C21 H18 F1 N3 O2,Fc1ccc(cc1)C(=O)C=Cc1nc2ccccc2nc1N1CCOCC1,5.6398316600000005
311,AFUTIF,C19 H16 O6,COC(=O)C(c1ccc2ccccc2c1)=C1C(=O)OC(C)(C)OC1=O,5.68282565
312,AFUXII,C28 H27 N3 O4 S1,CCOC(=O)C=CC1=C(C=Nc2ccc(cc2)N(C)C)N(c2ccccc12)S(=O)(=O)c1ccccc1,4.98186037
313,AFUYAB,C12 H12 N4 O2 S1,CSc1nc(N)c(N=O)c(OCc2ccccc2)n1,6.33181719
314,AFUZUZ,C22 H18 N2 O5,CCOC(=O)C1=C2C=CC=CN2C(=C1C(=O)OCC)C(=O)c1ccc(cc1)C#N,5.79602502
315,AFZPYM,C4 H3 N5 O1,NC1=NC=NC2=NON=C12,6.02786601
316,AGADOE,C30 H29 N3 O4 S1,CC(C)(C)OC(=O)NC1(C(=O)N(Cc2ccccc2)c2ccccc12)C1(C)SC(=NC1=O)c1ccccc1,5.668131509999999
317,AGAGUK,C15 H14 N4,N#CC(C#N)=C1C=CC(C=C1)=C1NCC2CCCN12,4.46620463
318,AGAHAR,C18 H16 F4 N4,FC1=C(F)C(C(=C(F)C1=C(C#N)C#N)F)=C(N1CCCC1)N1CCCC1,4.27871819
319,AGAJEZ,C34 H49 N1 O2,COc1ccc(cc1)N=C1CCC2(C)C3CCC4(C)C(CCC4C3CC(=O)C2=C1)C(C)CCCC(C)C,5.821059490000001
320,AGAJOI,C22 H22 N4,Cc1c(C)c(N=Cc2ccccn2)c(C)c(C)c1N=Cc1ccccn1,6.09181278
321,AGALIF,C16 H10 N2 O2,Cc1ccc2N=C3N(C(=O)c2c1)c1ccccc1C3=O,5.77915396
322,AGAQAC,C18 H20 N2 O3 S1,CCOC(=O)C1=C(SC2=C1CCN(C)C2)N=Cc1ccccc1O,5.618334669999999
323,AGARAE,C18 H12 N2 O4 S2,Nc1ccc2c3cc4c(cc3S(=O)(=O)c2c1)c1ccc(N)cc1S4(=O)=O,5.49044117
324,AGAREI,C12 H10 N2 O2 S1,Nc1ccc2c3ccc(N)cc3S(=O)(=O)c2c1,5.960653890000001
325,AGARUX,C26 H22 N2 O5,CCOC(=O)CN1C(=O)C2=C3C=Cc4ccccc4N3C(=C2c2ccccc12)C(=O)OCC,5.91303397
326,AGATOT,C18 H13 Br1 O2,COC(=O)C=Cc1c2ccccc2c(Br)c2ccccc12,5.098597209999999
327,AGAVOU,C17 H9 F6 N1 O2,FC(F)(F)C(=O)c1cc(C(=O)C(F)(F)F)c2ccccc2c1NCC#C,5.75956176
328,AGAXAJ,C7 H4 O1 S4,O=CC1=CSC(S1)=C1SC=CS1,4.852062070000001
329,AGAYUE,C28 H20 O4,COc1ccc2Oc3ccccc3C(c2c1)=C1c2ccccc2Oc2ccc(OC)cc12,5.6395595499999995
330,AGEDAT,C23 H21 N3 O2 S1,NC(=O)c1cccc(c1)C(=O)NC(=S)N(Cc1ccccc1)Cc1ccccc1,6.03004293
331,AGEDEW,C42 H36 N6,C(CN(Cc1cc2ccccc2cn1)Cc1cc2ccccc2cn1)N(Cc1cc2ccccc2cn1)Cc1cc2ccccc2cn1,6.3378037
332,AGEFAV,C15 H11 Cl2 N1 O1 S1,OC(=CC(=S)Nc1ccccc1)c1ccc(Cl)cc1Cl,5.20254471
333,AGEFEZ,C26 H18 N2 O6 S2,O=C1c2ccc(cc2C(=O)c2cc(ccc12)S(=O)(=O)Nc1ccccc1)S(=O)(=O)Nc1ccccc1,5.58785792
334,AGEFID,C17 H11 N3 O1,[O-]c1ccc2ccccc2c1N=[NH+]c1ccccc1C#N,5.07247428
335,AGEGEA,C17 H25 N3 O2 S1,CC(C)CN(CC(C)C)C(=S)NC(=O)c1cccc(c1)C(N)=O,6.091268540000001
336,AGEMOQ,C12 H9 Cl1 O4,CCOC(=O)C=C1C(=O)Oc2ccc(Cl)cc12,5.85969966
337,AGEMUW,C13 H12 O5,CCOC(=O)C=C1C(=O)Oc2cc(OC)ccc12,5.81371241
338,AGEPIN,C23 H18 F3 N1 O2,FC(F)(F)C1C(C(ON1c1ccccc1)c1ccccc1)C(=O)c1ccccc1,6.11494245
339,AGERAF,C11 H8 Cl2 S1,ClC1=CSC=C(Cl)C2=CC=CC=C1C2,5.72391485
340,AGESIR,C15 H8 N2 O1 S2,O=C(C1=Nc2ccccc2S1)C1=Nc2ccccc2S1,5.88500624
341,AGETUD,C27 H25 N1 O1,C1CCN(CC1)c1ccc(cc1)C=C1OC(=Cc2ccccc2)c2ccccc12,4.91247134
342,AGEWEQ,C44 H44,CCCCC#Cc1c2ccccc2c(C#CCCCC)c2c1c1c(C#CCCCC)c3ccccc3c(C#CCCCC)c21,5.02294956
344,AGEYAO,C14 H14 Cl1 N1 O2,CCCCNC1=C(Cl)C(=O)c2ccccc2C1=O,5.23030032
345,AGEYES,C18 H22 Cl1 N1 O2,CCCCCCCCNC1=C(Cl)C(=O)c2ccccc2C1=O,5.25397423
346,AGEYIW,C16 H18 Cl1 N1 O2,CCCCCCNC1=C(Cl)C(=O)c2ccccc2C1=O,5.2000956899999995
347,AGEYUJ,C35 H25 Cl1 N4 O3,CC1=C(C(=O)Nc2ccccc2)C2=C(C(=O)Nc3ccccc3)C(=O)C=C(c3ccc(Cl)cc3)C2=NN1c1ccccc1,5.22376959
348,AGIBOJ,C20 H19 N3 O1 S1,COc1ccc(cc1)C1=CSC(=N1)NN=CC(C)=Cc1ccccc1,5.532618810000001
349,AGIBUP,C35 H30 N2 O4 S1,CC1=NC(=C(S1)C(=O)OCc1ccccc1)C(Cc1ccccc1)NC(=O)OCC1c2ccccc2c2ccccc12,6.0580706499999994
350,AGICOL,C19 H20 N4 O1,CCC(NNc1ccccc1)=C1C(=NN(C1=O)c1ccccc1)C,6.10188098
351,AGICUR,C20 H22 N4 O1,CCCC(NNc1ccccc1)=C1C(=NN(C1=O)c1ccccc1)C,6.04691398
352,AGIDAX,C13 H12 Cl1 N1 O2,CCCNC1=C(Cl)C(=O)c2ccccc2C1=O,5.22104845
353,AGIDOL,C11 H8 Cl1 N1 O2,CNC1=C(Cl)C(=O)c2ccccc2C1=O,5.1611834
354,AGIDUR,C12 H10 Cl1 N1 O2,CCNC1=C(Cl)C(=O)c2ccccc2C1=O,5.10594429
355,AGIFAX,C25 H20 O5,Cc1cc(C(O)=CC(=O)c2ccccc2)c(O)c(c1)C(=O)C=C(O)c1ccccc1,6.16936522
356,AGIHEG,C21 H17 N1,Cc1c2ccccc2cc(N)c1c1cccc2ccccc12,5.7679972799999994
357,AGINAI,C38 H36 N2,C(CCCCN=Cc1c2ccccc2cc2ccccc12)CCCN=Cc1c2ccccc2cc2ccccc12,5.31792098
358,AGINIQ,C35 H30 N2,C(CCN=Cc1c2ccccc2cc2ccccc12)CCN=Cc1c2ccccc2cc2ccccc12,5.37642545
359,AGINOW,C40 H26 N4,c1ccc2c(c1)cc1ccccc1c2C=Nc1ccc(nc1)c1ccc(cn1)N=Cc1c2ccccc2cc2ccccc12,5.0158746
360,AGINUC,C33 H26 N2,C(CN=Cc1c2ccccc2cc2ccccc12)CN=Cc1c2ccccc2cc2ccccc12,5.30975757
361,AGIPAJ,C22 H21 N1 O4,CCOC(=O)C=CC1=CC(=C2C=C(C=CN12)c1ccccc1)C(=O)OCC,5.58813003
362,AGISAN,C23 H16 F2 N4,Nc1ccccc1C(F)(F)C1=NC2=Nc3ccccc3N2C(=C1)c1ccccc1,5.52418328
363,AGIVAP,C17 H22 B1 F3 N2 O1,CCN(CC)c1ccc(C=C2[NH+]=C(C)C=C2C)c(O[B-](F)(F)F)c1,4.66620831
364,AGIWUL,C17 H21 B1 F2 N2 O2,CCC1=C(CC)C2=CC3=[N+](C(=O)C(=C3CC)CC)[B-](F)(F)N2C1=O,5.374248550000001
365,AGIYAT,C23 H17 Br1 N4 O1,Cc1cc2NC(=O)C(=Nc2cc1C)C1=C(N=C2N1C=CC=C2Br)c1ccccc1,5.46513457
366,AGIYEX,C32 H24 N2,C(CN=Cc1c2ccccc2cc2ccccc12)N=Cc1c2ccccc2cc2ccccc12,5.237919509999999
367,AGIYIB,C34 H28 N2,C(CCN=Cc1c2ccccc2cc2ccccc12)CN=Cc1c2ccccc2cc2ccccc12,5.23519837
368,AGIYOF,C42 H32 S4 Si2,S1C(SC(=C1[SiH](c1ccccc1)c1ccccc1)c1ccccc1)=C1SC(=C(S1)c1ccccc1)[SiH](c1ccccc1)c1ccccc1,5.04662347
369,AGIYOH,C36 H32 N2,C(CCCN=Cc1c2ccccc2cc2ccccc12)CCN=Cc1c2ccccc2cc2ccccc12,5.35628904
372,AGIZUO,C24 H19 N1,Cc1ccc2c(c1)C=C(N1c3ccccc3C(=C21)C)c1ccccc1,5.698608259999999
373,AGOCAC,C35 H35 N5 O2 S1,CCN(CC)c1ccc2c(Oc3cc(ccc3C32NN(C(=O)c2ccccc32)C2=Nc3ccccc3S2)N(CC)CC)c1,5.81344031
374,AGOCEH,C19 H22 Br1 N7 S1,Brc1ccc(cc1)N1N=NN=C1SCCCN1CCN(CC1)c1ccccn1,6.31222499
375,AGOGUB,C16 H10 F4 N4 O1,Nc1ccc(cc1N)c1ccc2nc3c(nc2c1)C(F)(F)OC3(F)F,4.46974211
376,AGOHIQ,C15 H15 N7 O1,C1CCN(C1)C=NC1=NC2=NON=C2N=C1Nc1ccccc1,5.58540889
377,AGOHOW,C25 H26 N6 O2,CC(C)(C)c1cc(cc(c1O)C(C)(C)C)C1=NC2=NC3=NON=C3N=C2N1c1ccccc1,5.45071254
380,AGOMUG,C20 H17 N3 O4 S1,COC(=O)C=C1SC(=NN=C(C)c2ccc(O)cc2)N(C1=O)c1ccccc1,5.64853931
381,AGOPET,C24 H20 Br1 N3 S1,Cc1ccc(cc1)C(C)=NN=C1SC=C(N1c1ccccc1)c1ccc(Br)cc1,5.89344178
382,AGOPUJ,C13 H10 Cl1 N3 O3 S1,Clc1cccc(c1)C(=O)NC(=S)NNC(=O)C1=CC=CO1,6.0700436600000005
383,AGOVEZ,C29 H22 Br2 N2 O5,COC(=O)C1(CC(=NO1)c1ccc(Br)cc1)C(c1ccccc1)C1=C(C)C(=O)N(C1=O)c1ccc(Br)cc1,5.9791576399999995
384,AGOYAZ,C14 H12 N2 O2,Oc1ccc(cc1)N=CC=Nc1ccc(O)cc1,5.7807866400000005
385,AGUBIP,C24 H23 Cl2 N1 O3,COc1ccc(O)c(c1)C1(C)CC(Nc2ccc(OC)cc12)c1ccc(Cl)c(Cl)c1,6.208005389999999
386,AGUBIQ,C58 H46 O1,CCCCCCCCOc1c2C3c4ccccc4C(c4ccccc34)c2c(C#Cc2cccc3cc4ccccc4cc23)c2C3c4ccccc4C(c4ccccc34)c12,5.48717579
387,AGUMOG,C30 H18 Cl1 F1 N2 O2,Fc1ccc(Cc2nc(cc(n2)C2=Cc3c(OC2=O)ccc2ccccc32)c2ccc(Cl)cc2)cc1,5.623232720000001
388,AGUPIB,C26 H16 Br2 F1 N3 O4,Fc1ccc(cc1Br)C1C2=CCN3N(C2CC2=C1C(=O)C=C(Br)C2=O)C(=O)N(C3=O)c1ccccc1,5.26621935
389,AGURID,C35 H31 N11,CCN(CC)N=Nc1ccc(cc1C1=CC(=NC2=Cc3cc(ccc3N12)C#N)C1=C2C=C(C=CC2=NN1N(CC)CC)C#N)C#N,4.89124646
390,AGURUP,C26 H32,CC(C)(C)C1=CC2=CC=C3C=C(C=C4C=CC(=C1)C2(C)C34C)C(C)(C)C,4.54838301
391,AGUSAW,C30 H34,CC(C)(C)C1=CC2=CC=C3C=C(C=C4c5ccccc5C(=C1)C2(C)C34C)C(C)(C)C,4.569607899999999
392,AGUSAY,C20 H14 O4 S1,COC(=O)C=C1SC(C1=O)=C(C(=O)c1ccccc1)c1ccccc1,5.67439013
393,AGUTIH,C29 H22 N2 O1,Cc1cc(C=Nc2cccc3ccccc23)c(O)c(C=Nc2cccc3ccccc23)c1,5.6689478399999995
394,AGUVEF,C12 H11 N3 S2,S=C(NN=CC1=CC=CS1)Nc1ccccc1,5.53397938
395,AGUXEF,C22 H17 N3,c1ccc(cc1)N=C1C=CC(=Nc2ccccc2)N1c1ccccc1,5.7293571199999995
396,AGUZUZ,C36 H35 N5 O2,CCN(CC)c1ccc2c(Oc3cc(ccc3C32N(N=Cc2ccc(cc2)C#N)C(=O)c2ccccc32)N(CC)CC)c1,5.40445318
397,AHADIY,C21 H20 N6 O2,CN1N(c2ccccc2)C(=O)C(=C1C)NN=C1C(=NN(c2ccccc2)C1=O)C,5.21397349
398,AHAJUR,C25 H20 N8 S1,C(N(CC1=CN(N=N1)c1ccccc1)C1=Nc2ccccc2S1)C1=CN(N=N1)c1ccccc1,5.85398526
399,AHALIG,C17 H15 N3 O1 S1,CC(=NNC(=S)Nc1ccccc1)C1=Cc2ccccc2O1,5.83874689
400,AHALOM,C17 H13 Cl2 N3 O1 S1,CC(=NNC(=S)Nc1cc(Cl)ccc1Cl)C1=Cc2ccccc2O1,6.0137161
401,AHAMAX,C28 H48 F3 N5 O7,CCOC(=O)C(C)(C)NC(=O)C(C)(C)NC(=O)C(CC)(CC(C)C)NC(=O)C(C)(C)NC(=O)C(C)(C)NC(=O)C(F)(F)F,7.13917898
402,AHANUS,C24 H37 N3 O7,COC(=O)c1ccccc1C(=O)NC(C)(C)C(=O)NC(C)(C)C(=O)NC(C)(C)OOC(C)(C)C,6.82760862
403,AHAPAA,C23 H33 N3 O6,CC(C)(C)OOC(C)(C)NC(=O)C(C)(C)NC(=O)C(C)(C)N1C(=O)c2ccccc2C1=O,5.93153771
404,AHAPEG01,C23 H17 N3 O1,COc1cc(ccc1C=C(C#N)C#N)N(c1ccccc1)c1ccccc1,5.23737528
405,AHAQIM,C20 H13 F9 N2,CN1C(=C(C)N(C)C1=Cc1c(F)c(F)c(c(F)c1F)c1c(F)c(F)c(F)c(F)c1F)C,5.40771855
406,AHAQOR,C19 H14 Br1 N3 O1,Oc1ccc(cc1C=Nc1ccccc1)N=Nc1ccc(Br)cc1,5.82622965
407,AHASOS,C18 H12 Br1 N1 O1,Brc1ccc(cc1)C1N2C(=Cc3ccccc23)C=C1C=O,5.6229606
408,AHAYAL,C30 H18,c1ccc(cc1)C#Cc1cccc2cc3cccc(C#Cc4ccccc4)c3cc12,5.04988883
409,AHAZEP,C18 H15 N1 O1,CC(=O)C=CC1=C(Nc2ccccc12)c1ccccc1,5.85969966
410,AHAZEQ,C30 H34 N4 S6,CCCCCCC1=CC=C(S1)C1=CC=C(S1)C1=NSN=C(N=S=N1)C1=CC=C(S1)C1=CC=C(CCCCCC)S1,4.35599852
411,AHAZIU,C18 H10 N4 S6,S1N=C(N=S=NC(=N1)C1=CC=C(S1)C1=CC=CS1)C1=CC=C(S1)C1=CC=CS1,4.613146110000001
412,AHAZOA,C22 H30 N4 S4,CCCCCCC1=CSC(=C1)C1=NSN=C(N=S=N1)C1=CC(=CS1)CCCCCC,4.84961305
413,AHBONM,C32 H34 N4 O3,COC(=O)CCC1=C(C)C2=CC3=NC(=CC4=CC(=C(N4)C=C4N=C5C(CCC(=O)C5=C1N2)C4(C)C)C)C(=C3)C,3.8991193699999998
414,AHECIC,C15 H13 F7 N2,CN1C(=C(C)N(C)C1=Cc1c(F)c(F)c(c(F)c1F)C(F)(F)F)C,5.767453059999999
415,AHECUO,C14 H15 F3 N2,CN1C(=C(C)N(C)C1=Cc1cc(F)cc(F)c1F)C,5.93126559
416,AHEDAU,C14 H11 Br1 O2 S1,COc1ccccc1C=CC(=O)C1=C(Br)C=CS1,5.96636829
417,AHEDAV,C14 H13 Cl1 F4 N2,CN1C(=C(C)N(C)C1=Cc1c(F)c(F)c(Cl)c(F)c1F)C,5.84745453
418,AHEDEY,C15 H13 Br1 O3 S1,COc1ccc(C=CC(=O)C2=C(Br)C=CS2)cc1OC,5.592483850000001
419,AHEDEZ,C18 H13 F7 N2,CN1C(=C(C)N(C)C1=Cc1c(F)c(F)c2c(F)c(F)c(F)c(F)c2c1F)C,5.14213543
420,AHEDOJ,C28 H26 F8 N4,CN1C(=C(C)N(C)C1=Cc1c(F)c(F)c(c(F)c1F)c1c(F)c(F)c(C=C2N(C)C(=C(C)N2C)C)c(F)c1F)C,5.26349822
421,AHEDUM,C46 H38 N2 O6 S1,CCC(C)COc1ccc(cc1)C(=O)Oc1ccc(cc1)C#CC1=C(C#N)C(=C(S1)C#Cc1ccc(OC(=O)c2ccc(OCC(C)CC)cc2)cc1)C#N,5.577245479999999
422,AHEFEA,C22 H18 N2 O4,COc1ccccc1C1N2N(C(=O)c3ccccc3C2=O)C2=C1C(=O)CCC2,6.01589301
423,AHEFEB,C27 H18 O2 S1,O=S1(=O)CC(=C1c1c2ccccc2cc2ccccc12)c1cccc2ccccc12,5.3717995300000005
424,AHEFEY,C18 H30 N2 S2,CC(C)(C)c1cc(c(SN=S=N)c(c1)C(C)(C)C)C(C)(C)C,6.01344398
425,AHEGEA,C14 H13 N3,CN(C)c1ccc(cc1)C(C=C)=C(C#N)C#N,5.27220585
426,AHEGIE,C21 H16 N4,CN(C)c1ccc(cc1)C(C=Cc1ccc(cc1)C#N)=C(C#N)C#N,4.71410035
427,AHELIK,C17 H23 N3 O3,CC(O)CC1=NC(=Cc2cccc(c2)N(C)C)C(=O)N1CCO,5.18621788
428,AHEMIJ,C24 H14 N2,C#Cc1ccc(C#C)c2nc(c3ccccc3)c(nc12)c1ccccc1,5.81861046
429,AHEMUW,C32 H20,C1=CC#Cc2ccc(C=CC=CC#Cc3ccc(C=C1)c1ccccc31)c1ccccc21,5.14295177
430,AHENAC,C11 H10 N2 O3,CN(C)c1cc[n+](cc1)C1=C([O-])C(=O)C1=O,5.2700289399999996
431,AHEPIO,C42 H28 N6,N#Cc1nc(c2ccc(cc2)N(c2ccccc2)c2ccccc2)c(nc1C#N)c1ccc(cc1)N(c1ccccc1)c1ccccc1,4.93668948
432,AHEQOT,C17 H14 O2,OC(C=Cc1ccccc1)=CC(=O)c1ccccc1,5.70160151
433,AHERIO,C22 H18 N2 O2 S1,O=C1Oc2c3CCCN4CCCc(cc2C=C1C1=Nc2ccccc2S1)c34,5.148121929999999
437,AHEYUI,C34 H16 F4 O2,Fc1cccc(F)c1C1=C2C=C3C(=O)c4ccccc4C(=C3C=C2C(=O)c2ccccc12)c1c(F)cccc1F,3.6506794199999995
438,AHIBAV,C13 H7 Cl2 N1 O4,Clc1cc2C(=O)N(C3OCC(=O)C=C3)C(=O)c2cc1Cl,6.72747073
439,AHIDUS01,C34 H25 N3 O6,COC(=O)C1=C(C(=O)OC)C2(C(=O)c3ccccc3C2=O)C(C#N)(C#N)C(C=Cc2cccc(C)c2)N1c1ccccc1,6.32773548
440,AHIFOP,C30 H24 Br1 N1 O4 S1,CCOc1ccc(cc1)C1N(c2ccccc2C(=O)C1=Cc1ccc(Br)cc1)S(=O)(=O)c1ccccc1,6.09589448
441,AHIGAA,C32 H30,Cc1ccc(cc1)C=C(c1ccc(C)cc1)C(=Cc1ccc(C)cc1)c1ccc(C)cc1,5.85561795
442,AHIJIL,C12 H14 N2 O2,CC(C)[N+]([O-])=C1C(=O)N(C)c2ccccc12,5.78622892
445,AHIKUY,C9 H8 N4,Cc1nnc(nn1)c1ccccc1,6.38760053
446,AHIMIN,C14 H13 N1 O2,O=C1C=C(N2CCCC2)C(=O)c2ccccc12,5.41043969
447,AHIMOT,C20 H17 N1 O2 S1,O=C1C(=C(N2CCCC2)C(=O)c2ccccc12)Sc1ccccc1,5.15193153
448,AHIQOX,C25 H18 S4,S1C=CC=C1C1=CC=C(S1)C=CC(C1=CC=C(S1)C1=CC=CS1)c1ccccc1,5.76255501
449,AHIWUL,C30 H6 F10 S6,Fc1c(F)c(F)c(c(F)c1F)C1=CC=C(S1)C1=CC2=C(S1)C1=C(S2)C2=C(S1)C=C(S2)C1=CC=C(S1)c1c(F)c(F)c(F)c(F)c1F,4.76825101
450,AHIXAS,C28 H6 F10 S5,Fc1c(F)c(F)c(c(F)c1F)C1=CC=C(S1)C1=CC2=C(S1)C1=C(S2)C=C(S1)C1=CC=C(S1)c1c(F)c(F)c(F)c(F)c1F,4.881722470000001
451,AHIXEW,C26 H6 F10 S4,Fc1c(F)c(F)c(c(F)c1F)C1=CC=C(S1)C1=CC2=C(S1)C=C(S2)C1=CC=C(S1)c1c(F)c(F)c(F)c(F)c1F,5.00743907
452,AHODUZ,C30 H34 O2,COc1cc(C=Cc2c(C)cc(C)cc2C)c(OC)cc1C=Cc1c(C)cc(C)cc1C,5.87466592
453,AHOFAH,C32 H20 N2,N#Cc1cccc(C=Cc2c3ccccc3c(C=Cc3cccc(c3)C#N)c3ccccc23)c1,4.93560102
454,AHOFOV,C23 H20 N2 O2,O=C(CN1CCCC1)Nc1ccc2c3ccccc3C(=O)c3cccc1c23,5.19819088
455,AHOKUF,C26 H29 N3,CCCCCCCCCCN1c2ccccc2C(c2ccccc12)=C(C#N)C#N,5.17370064
456,AHOMOC,C16 H23 Cl1 N2 O1 Se1,CC(C)CN(CC(C)C)C(=[Se])NC(=O)c1ccc(Cl)cc1,5.58486467
457,AHONAP,C16 H23 Cl1 N2 O1 Se1,CCCCN(CCCC)C(=[Se])NC(=O)c1ccc(Cl)cc1,5.53452361
458,AHONET,C28 H18 Br2 O2,COc1ccc2cc(Br)c3ccc4ccc5c(Br)cc6ccc(OC)cc6c5c4c3c2c1,5.63819898
459,AHONIX,C30 H17 N1 O1,N=C1C(=O)c2ccc3ccc4ccccc4c3c2c2c1ccc1ccc3ccccc3c21,5.19873512
460,AHONOB,C31 H24 N1 O2 P1,CN(C)C1=C(P2Oc3ccc4ccccc4c3c3c(O2)ccc2ccccc32)c2ccccc2C1,5.737792649999999
461,AHOXAY,C18 H19 N1 O3,COc1ccc(O)c(c1)C(=O)C=Cc1ccc(cc1)N(C)C,5.54105434
462,AHOXEC,C18 H19 N1 O2,CN(C)c1ccc(C=CC(=O)c2cc(C)ccc2O)cc1,5.42867132
463,AHPAZP10,C11 H10 N4 O1,Nc1nc(ccc1O)N=Nc1ccccc1,5.5810550800000005
464,AHPSUL,C5 H9 N3 O3 S1,CN1C(C=C[NH+]=C1N)S(=O)(=O)[O-],6.67250372
465,AHPSUM,C3 H9 N1 O4 S1,[NH3+]CC(O)CS(=O)(=O)[O-],5.25615114
466,AHUHOB,C16 H10 Cl1 N1 O2 S1,Clc1ccc2C(=O)C(=COc2c1)C(=S)Nc1ccccc1,5.71575143
467,AHUZIP,C26 H26 N4 O6,O=C([O-])c1cc(ccc1NC(=O)C1[NH2+]CCC1)C#Cc1ccc(NC(=O)C2[NH2+]CCC2)c(c1)C(=O)[O-],5.18485731
468,AHUZUB,C21 H19 N1 O2,CN(C)c1ccc(C=CC(=O)c2ccc3ccccc3c2O)cc1,5.231388770000001
469,AJADUM,C20 H15 N3 O1 S1,O=C1N(Nc2ccccc2)C(=NC1=CC1=CC=CS1)c1ccccc1,5.30513163
470,AJAFAU,C21 H17 N3 O1 S1,Cc1ccc(cc1)C1=NC(=CC2=CC=CS2)C(=O)N1Nc1ccccc1,5.09941356