,ID,formula,smiles,HOMO_LUMO_gap
7952,FISBIV,C22 H30 O4,COC1=CC(=O)C2=C(CC3(C)C(C)CCC4C(C)(C)CCCC34O2)C1=O,6.145147090000001
7953,FISREE,C21 H14 Br1 P1 S1,Brc1ccc(cc1)C1=PC(=C(S1)c1ccccc1)c1ccccc1,5.81833835
7954,FISSIM,C15 H10 Cl1 N3 O1,ClC1=C(C=CC(=O)c2ccncc2)N2C=CC=CC2=N1,5.60690589
7955,FISSUY,C18 H15 N3 O6,COc1cc(ccc1OCC1=CN(N=N1)c1ccc(cc1)C(O)=O)C(O)=O,6.092084890000001
7956,FISVUY,C25 H24 N2 O2,CN(C)c1ccc2N(Cc3ccccc3)c3c(C)cc(C=O)c(C)c3c2c1C=O,5.3209142300000005
7957,FISYAH,C30 H26 N2 O2,CCc1ccc(Nc2cccc3C(=O)c4c(Nc5ccc(CC)cc5)cccc4C(=O)c23)cc1,4.862946620000001
7958,FISYOY,C19 H13 Cl2 N3,Clc1ccc(cc1)C(Cl)=Nc1ccc(cc1)N=Nc1ccccc1,5.831671930000001
7959,FISYUE,C24 H23 Cl2 N5,CN1CCN(CC1)C(=Nc1ccc(cc1)N=Nc1ccccc1)c1ccc(Cl)c(Cl)c1,5.87493803
7960,FISZOY,C48 H32 P2,c1ccc2c(c1)cccc2C1=CC=C(P1P1C(=CC=C1c1cccc2ccccc12)c1cccc2ccccc12)c1cccc2ccccc12,5.43438571
7961,FISZUE,C30 H21 P1,c1ccc(cc1)P1C(=CC=C1c1cccc2ccccc12)c1cccc2ccccc12,5.61779044
7962,FISZUF,C13 H11 Cl1 N2 O2,Cc1c(Cl)cccc1Nc1[nH+]cccc1C(=O)[O-],5.73942534
7963,FITGUN,C24 H16 Cl2 N2,Clc1ccc(cc1)N1c2ccccc2N(c2ccc(Cl)cc2)c2ccccc12,5.80935859
7964,FITHAU,C24 H16 Cl2 N2,Clc1cccc(c1)N1c2ccccc2N(c2cccc(Cl)c2)c2ccccc12,5.71629566
7965,FITHEY,C24 H16 Cl2 N2,Clc1ccc2N(c3ccccc3)c3cc(Cl)ccc3N(c3ccccc3)c2c1,5.83276039
7966,FITHIC,C24 H16 Br2 N2,Brc1ccc(cc1)N1c2ccccc2N(c2ccc(Br)cc2)c2ccccc12,5.76690884
7967,FITHOI,C24 H14 Br2 Cl2 N2,Clc1ccc2N(c3ccc(Br)cc3)c3cc(Cl)ccc3N(c3ccc(Br)cc3)c2c1,5.7073159
7968,FITHUO,C24 H16 Br2 N2,Brc1cccc(c1)N1c2ccccc2N(c2cccc(Br)c2)c2ccccc12,5.784596240000002
7969,FITJAW,C24 H16 Br2 N2,Brc1ccc2N(c3ccccc3)c3cc(Br)ccc3N(c3ccccc3)c2c1,5.89126487
7970,FITJEA,C26 H20 Br2 N2,Cc1ccc(cc1)N1c2ccc(Br)cc2N(c2ccc(C)cc2)c2ccc(Br)cc12,5.65452581
7971,FITJIE,C24 H14 Br4 N2,Brc1ccc(cc1)N1c2ccc(Br)cc2N(c2ccc(Br)cc2)c2ccc(Br)cc12,5.7802424100000005
7972,FITJOK,C24 H14 Cl2 F2 N2,Fc1ccc(cc1)N1c2ccc(Cl)cc2N(c2ccc(F)cc2)c2ccc(Cl)cc12,5.70758802
7973,FITJUQ,C24 H14 Br2 F2 N2,Fc1ccc(cc1)N1c2ccc(Br)cc2N(c2ccc(F)cc2)c2ccc(Br)cc12,5.678471829999999
7974,FITKAX,C24 H16 F2 N2,Fc1ccc2N(c3ccccc3)c3cc(F)ccc3N(c3ccccc3)c2c1,5.9388847899999995
7975,FITKEB,C24 H16 F2 N2,Fc1ccc(cc1)N1c2ccccc2N(c2ccc(F)cc2)c2ccccc12,5.60608955
7976,FITKIF,C26 H20 Cl2 N2,Cc1ccc(cc1)N1c2ccc(Cl)cc2N(c2ccc(C)cc2)c2ccc(Cl)cc12,5.78241933
7977,FITKUR,C24 H16 F2 N2,Fc1cccc(c1)N1c2ccccc2N(c2cccc(F)c2)c2ccccc12,5.79520867
7978,FITLAY,C26 H22 N2,Cc1cccc(c1)N1c2ccccc2N(c2cccc(C)c2)c2ccccc12,5.7802424199999995
7979,FITMAY,C34 H40 O6,CC1CC2(CC(C)(C)C(=C(O2)C=Cc2ccc(O)cc2)C(=O)CCc2ccc(O)cc2)OC2C=C(C)C(O)CC12,6.06188025
7980,FITNUT,C53 H32 O1,O=C1C(=C2c3cccc4cccc(c34)C3=C(c4ccccc4)C4=C(c5cccc6cccc4c56)C1(c1ccccc1)C23c1ccccc1)c1ccccc1,5.18240828
7981,FITRAD,C16 H14 Cl1 N1 O4,CCC(=O)N(C(=O)CC)C1=C(Cl)C(=O)c2ccccc2C1=O,6.35521898
7982,FITSAE,C17 H13 N1 O2,Oc1ccc(NC=C2C(=O)C=Cc3ccccc23)cc1,5.3304382200000004
7983,FITTOR,C18 H16 N2 O2,CC1C=CC(C)N2N1C(=O)c1cc3ccccc3cc1C2=O,6.265693519999999
7984,FITTUX,C27 H23 N3,Cc1ccc(cc1)C1=CC2(C(CNN2C(=C1)c1ccccc1)C#N)c1ccccc1,5.71629566
7985,FITVUZ,C16 H12 F3 N3 O2,CC(=O)OCc1cc(C)c2N=Nc3c(F)c(F)nc(F)c3Cc2c1,6.29344913
7986,FITXIP,C2 H4 N6,NC1=NN=C(N)N=N1,5.92419064
7987,FIVKUQ,C21 H30 N2 O1,CC1(C)NC(C)(C)c2cc3c(cc12)C(=O)CC13C(C)(C)NC1(C)C,6.75495423
7988,FIVLAX,C23 H34 N2 O1,CN1C(C)(C)c2cc3C(=O)CC4(c3cc2C1(C)C)C(C)(C)N(C)C4(C)C,6.60882908
7989,FIVPEH,C19 H14 N2,Cc1ccc(cc1)C1=CC2=CC=CC=CC2C1(C#N)C#N,5.61561353
7990,FIVPEI,C27 H20 N2 O2,CN1c2ccccc2C=C1C(=O)C(=C(O)c1ccccc1)C(=CC#N)c1ccccc1,5.33125455
7991,FIVPIL,C19 H14 N2 O1,COc1ccc(cc1)C1=CC2=CC=CC=CC2C1(C#N)C#N,5.52200637
7992,FIVPUW,C20 H13 N3,N1c2cc3ccccc3cc2N=C1c1ccc2ccccc2n1,5.35819383
7993,FIVROS,C36 H48 N2,CCCCCCCCN1c2ccccc2c2c(C)c3N(CCCCCCCC)c4ccccc4c3c(C)c12,5.60064727
7994,FIVSAG,C44 H50 N4,CC(C)(C)c1ccc2Nc3c(cc(cc3c2c1)C(C)(C)C)c1cc(ncn1)c1cc(cc2c1Nc1ccc(cc21)C(C)(C)C)C(C)(C)C,5.14131909
7995,FIVVAK,C40 H16 F10 O4 S2,Fc1c(F)c(F)c(COC(=O)c2ccccc2C#CC2=CC=C(S2)C2=CC=C(S2)C#Cc2ccccc2C(=O)OCc2c(F)c(F)c(F)c(F)c2F)c(F)c1F,4.96009127
7996,FIVXEP,C22 H22 O8,COC(=O)C=CC1=CC2C(C3C1C(OC)(OC3=O)C2=O)c1ccc(OC)c(OC)c1,5.86759096
7997,FIVZEP,C10 H16 N4 S3,CCN1C(=S)N2CCCN3C(=S)N(CC)S1=C23,6.165827739999999
7998,FIWBIY,C18 H18 N2 S6,CCCSC1=C(SCCC)SC(S1)=C1Sc2cc3nccnc3cc2S1,4.755461650000002
7999,FIWKAZ,C16 H11 Br1 N2 O1,CC1=CC(=O)N2N1c1ccccc1c1ccc(Br)cc21,5.77126266
8000,FIWMED,C18 H16 N2 O1,CC1=CC(=O)c2c(C)c3Nc4ccccc4c3c(C)c2N1,5.7347994
8001,FIWVIQ,C24 H18 N2 O2,O=C1C2=C(NC(C(N2)c2ccccc2)c2ccccc2)C(=O)c2ccccc12,4.70893018
8002,FIWVOW,C26 H20 N2 O3,CC(=O)N1C(C(NC2=C1C(=O)c1ccccc1C2=O)c1ccccc1)c1ccccc1,4.97424119
8003,FIXDOF,C17 H10 O1,O=C1C=Cc2cccc3c4cccc(C=C1)c4c23,5.6719411
8004,FIXJAX,C10 H9 N3 O2,CNC(=O)C1=Nc2ccccc2NC1=O,6.521208429999999
8005,FIXJIF,C25 H18 O1 S1,O=CC(=C1SC(=C(C=C1)c1ccccc1)c1ccccc1)c1ccccc1,5.3092133299999995
8006,FIXKEE,C24 H28 O8,CC(C)C(CC(=O)C1=C(O)C=C(C)OC1=O)C(C=C(C)C)C(=O)C1=C(O)C=C(C)OC1=O,5.8403795700000005
8007,FIXPOR,C10 H9 N3 O3,CC(=NO)[C-]1[N+](=NOC1=O)c1ccccc1,6.1631066
8008,FIXTIP,C21 H15 N1 O2,O=C1CC(=O)c2ccccc2N(c2ccccc2)c2ccccc12,5.983239340000001
8009,FIXYIU,C30 H28 O8,COC1OC(C=CC)C(OC(=O)c2ccccc2)C(OC(=O)c2ccccc2)C1OC(=O)c1ccccc1,5.03546681
8010,FIYDUN01,C13 H5 Br1 F3 N1 O1,Oc1cccc2cc3c(F)c(F)c(Br)c(F)c3nc12,5.43520205
8011,FIYFUQ,C32 H26 N4 O1,CC1=NN(c2ccccc2)C(=O)C1=C(Nc1ccccc1N=CC=Cc1ccccc1)c1ccccc1,5.10131836
8012,FIYGAX,C40 H32 N6 O2,CC1=NN(c2ccccc2)C(=O)C1=C(Nc1ccccc1NC(c1ccccc1)=C1C(=NN(c2ccccc2)C1=O)C)c1ccccc1,5.32526806
8013,FIYNUY,C23 H20 N4 O1,CC1=NN(C(=O)C1=C(Nc1ccc(N)cc1)c1ccccc1)c1ccccc1,5.50078148
8014,FIYNUZ,C20 H21 N5 S1,S=C1N(N=C(N=Nc2ccccc2)N1C1CCCCC1)c1ccccc1,4.64498342
8015,FIYPEK,C21 H19 N1 O2 S1,COc1ccccc1C=CC(=O)C1=C(C)N=C(S1)c1ccc(C)cc1,5.9492251199999995
8016,FIYPUA,C20 H15 I1 N2 O4 S1,COC(=O)C=C1SC(=NC(=O)c2ccc(C)cc2)N(C1=O)c1ccc(I)cc1,6.067050410000001
8017,FIYQIN,C15 H9 F5 N2 O1,COc1ccc(cc1)C=NN=Cc1c(F)c(F)c(F)c(F)c1F,5.83085559
8018,FIYTAI,C21 H22 N2 O3,COc1ccc(C=CC2=NN(C(C2)c2ccc(OC)cc2)C(C)=O)cc1,6.01480455
8019,FIYTOX,C24 H18 O4 S4,C1COC2=C(SC=C2O1)C=CC1=CC=C(S1)C1=CC=C(S1)C=CC1=C2OCCOC2=CS1,4.6305613999999995
8020,FIYTOY,C14 H16 N2 O6,COC1=C(NC(=C1OC)C1=C(OC)C(=C(N1)C=O)OC)C=O,5.853441040000001
8021,FIYVEP,C21 H31 Br1 S8,CSC1=C(SCCCCCCCCCCCCBr)SC(S1)=C1SC2=C(SCCS2)S1,5.84636608
8022,FIYVIT,C36 H38 S6,CCCCCCC1=C(SC(=C1)C1=CC=CS1)C1=CC=C(S1)C1=CC=C(S1)C1=C(CCCCCC)C=C(S1)C1=CC=CS1,4.65096993
8023,FIYWES,C16 H15 N5 S1,CCN1C(=S)N(N=C1N=Nc1ccccc1)c1ccccc1,4.65450741
8024,FIYWOC,C25 H22 F4 N4 O3,CCOC(=O)C1=CC2=C3NC4=C(C(N3N=C2N=C1C(F)(F)F)c1ccc(F)cc1)C(=O)CC(C)(C)C4,5.888815830000001
8025,FIZCUP,C29 H21 B1 Cl1 F10 N1,Fc1c(F)c(F)c(c(F)c1F)[B-](CC1(CC(Cl)=C)CC(=C)CC(=C)C1)([n+]1ccccc1)c1c(F)c(F)c(F)c(F)c1F,6.22079473
8026,FIZDAW,C29 H21 B1 Br1 F10 N1,Fc1c(F)c(F)c(c(F)c1F)[B-](CC1(CC(Br)=C)CC(=C)CC(=C)C1)([n+]1ccccc1)c1c(F)c(F)c(F)c(F)c1F,6.29780296
8027,FIZDOJ,C17 H12 F2 O3,OC(C=Cc1ccc(F)cc1)=CC(=O)c1cc(F)ccc1O,5.79738559
8028,FIZFAV,C40 H24 N4,c1ccc2c(c1)N=C1N(c3ccccc23)C(c2ccccc12)=C1N2c3ccccc3c3ccccc3N=C2c2ccccc12,4.9410433000000005
8029,FIZJED,C4 H6 N4 O2,COc1nnc(OC)nn1,6.476309650000001
8030,FIZJIH,C6 H8 N6,C1CN1c1nnc(nn1)N1CC1,6.21861782
8031,FIZNOR,C27 H24 Cl1 N3 O5 S1,CCOC(=O)N(N(C(=O)OCC)C(=Nc1ccc(Cl)cc1)c1ccccc1)C(=O)C(=S)c1ccccc1,5.9195647
8032,FIZROX,C15 H19 N3 O4,COCc1cnc(C2=NC(C)(C(C)C)C(=O)N2)c(c1)C(O)=O,6.66542876
8033,FIZSOZ,C14 H12 N2 O3,Oc1ccccc1NC(=O)NC(=O)c1ccccc1,6.2082775
8034,FIZZUJ,C23 H19 N2 P1,c1ccc(cc1)P(=NN=C1C=CC=C1)(c1ccccc1)c1ccccc1,5.73180615
8035,FLAVAN,C28 H12 N2 O2,O=C1c2ccccc2c2nc3ccc4C(=O)c5ccccc5c5nc6ccc1c2c6c3c45,4.69505238
8036,FLOCOS,C30 H26 O14,COC12OC1(C(O)c1c(O)c3C(=O)OC(C)Cc3cc1C2=O)C12OC1(OC)C(=O)c1cc3CC(C)OC(=O)c3c(O)c1C2O,6.462976060000001
8037,FLUANA,C6 H2 F2 O4,OC1=C(F)C(=O)C(=C(F)C1=O)O,6.25072726
8038,FMORPY,C11 H15 N5 O1 S1,NC(=S)NN=Cc1cc(ccn1)N1CCOCC1,5.8991561699999995
8039,FMPHTZ,C13 H8 F3 N1 S1,FC(F)(F)c1ccc2Sc3ccccc3Nc2c1,5.9391568999999995
8040,FMPRPY,C37 H37 Br1 F2 N2 O5,CC1CC2C3C(C(O)CC2(C)C1(O)C(=O)COC(=O)c1ccc(Br)cc1)C1(C)CC2=C(C=C1C1C3C1(F)F)N(N=C2)c1ccccc1,5.89534658
8041,FOBBAB,C27 H20 N2 O3,Cc1ccc2OC34C(c2c1)C1=C(NCCN3C(=O)c2ccccc42)c2ccccc2C1=O,5.85589006
8042,FOBBEF,C28 H22 N2 O3,CC1CN2C(=O)c3ccccc3C32Oc2ccc(C)cc2C3C2=C(N1)c1ccccc1C2=O,5.870856320000001
8043,FOBBIJ,C31 H25 Cl1 N2 O3,Cc1cc2OC34C(c2cc1Cl)C1=C(NC2CCCCC2N3C(=O)c2ccccc42)c2ccccc2C1=O,5.88310145
8044,FOBBUW,C50 H44,Cc1cc(C)c(c(C)c1)c1c2cccc3CCc4cccc5c4cc4c(CCc6cccc1c6cc23)cccc4c5c1c(C)cc(C)cc1C,5.19193227
8045,FOBDAB,C41 H30 N2 O1,O=C1N(c2ccccc2)C(N(c2ccccc2)C1=C(c1ccccc1)c1ccccc1)=C(c1ccccc1)c1ccccc1,5.38458887
8046,FOBHOV,C26 H20 O3,COC(=O)c1ccc(cc1)C=C1C=C(OC(=C1)c1ccccc1)c1ccccc1,5.18268039
8047,FOBKUC,C16 H19 N3 O6,COC1=C(C)C(=O)C2=C(C(COC(N)=O)C3(O)C4C(CN23)N4C)C1=O,5.30377106
8048,FOBNEQ,C16 H9 N1 O4,O=C(c1ccccc1)c1ccc[n+](c1)C1=C([O-])C(=O)C1=O,4.8507015
8049,FOBPUI,C20 H11 Cl2 N1 O2,Clc1cccc(Cl)c1OC(=O)c1c2ccccc2nc2ccccc12,5.67547858
8050,FOBQAP,C18 H16 N4 O1 S1,CN(C)N1C(=O)CSC1=Nc1c2ccccc2nc2ccccc12,5.57234743
8051,FOBQIZ,C18 H14 Cl2 O2,COc1ccc(cc1)C#CC(Cl)=C(Cl)c1ccc(OC)cc1,5.88745527
8052,FOBQOD,C8 H9 N1 O2,CC1=CC(C=C(C)C1=O)=NO,5.9688173099999995
8053,FOBROE,C30 H34 O2,Cc1cc(cc(C)c1C#CC(=O)C(=O)C#Cc1c(C)cc(cc1C)C(C)(C)C)C(C)(C)C,5.81235184
8054,FOBTIC,C44 H42 N4 O4,CCN(CC)c1ccc2c(Oc3cc(ccc3C32N(C(=O)c2ccccc32)c2ccc3C(=O)N(CC=CC)C(=O)c4cccc2c34)N(CC)CC)c1,5.1688025899999985
8055,FOBTUM,C18 H19 N3 O3 S1,COC(=O)C1=C(C)NC2=C(C1C1=CC=CS1)C(=O)N1CCCCN=C21,6.1307250600000005
8056,FOBVEY,C7 H9 N1 O4 S1,[NH3+]c1cc(ccc1OC)S(=O)(=O)[O-],5.62622597
8057,FOBYEB,C20 H14 Cl2 F3 N5,CN(C)c1ccc(cc1)C=NC1=CC(=NN1c1c(Cl)cc(cc1Cl)C(F)(F)F)C#N,5.71466298
8058,FOBZIF,C15 H14 N4 O2,CCC1=C(NC(=O)N1)C(=O)c1ccc(cc1)N1C=CN=C1,5.94296649
8059,FOCBAD,C30 H26 N6 O6,CCOC(=O)C1=C(C(=O)OCC)C(=C(C#N)C(=O)N1CCc1ccc(OC)cc1)C1=Cc2ccccc2N2N=NN=C12,5.778881849999999
8060,FOCBUX,C16 H16 N2 O3,CCN(CC)c1ccc2C=C(C(=O)Oc2c1)C1=NC=CO1,5.60608955
8061,FOCCOQ,C14 H13 N1 O3,COc1ccccc1NC=C1C=CC=C(O)C1=O,5.05206574
8062,FOCDOR,C21 H24 N2 O3,OC(C1CC2CC[N+]1(CC2C=C)CC(=O)[O-])c1ccnc2ccccc12,6.63631258
8063,FOCHEL,C22 H16 N4,c1ccc(cc1)[N+]1=Nc2c(ccc3ccccc23)[N-]C1c1ccccn1,5.0727464
8064,FOCHIP,C26 H18 N4,N([N+]1=C([N-]c2ccc3ccccc3c12)c1ccc2ccccc2n1)c1ccccc1,5.7995625
8065,FOCLAN,C41 H33 N3 O2,Cc1cc(C)c(N2C(=O)c3cc(N(c4ccccc4)c4ccccc4)c(cc3C2=O)N(c2ccccc2)c2ccccc2)c(C)c1,5.34622082
8066,FOCVIF,C21 H22 O4 S1,CC1C2CCC3(C)CC4=C(C(=O)OC4=C(C)C3C2OC1=O)C1=CC=CS1,5.64935565
8067,FOCVUR,C16 H15 N1 O2,CC=C1OC(=O)C(=C1C)C1=CN(C)c2ccccc12,5.63520573
8068,FOCXIF,C14 H13 Br1 N2 O1,Nc1ccccc1CN=Cc1cc(Br)ccc1O,6.126915459999999
8069,FOCZED01,C16 H10 N4,c1ccc2nc(cnc2c1)c1cnc2ccccc2n1,6.20691693
8070,FODBAC,C52 H40,Cc1ccc2ccc(C)c3c2c1c1c(C)c2c4ccccc4c4c(C)c5c6c(C)ccc7ccc(C)c(c67)c5c(C)c4c4ccccc4c2c(C)c31,5.758473309999999
8071,FODGEN,C23 H18 Br1 N5,CC(=NN=C1NCc2ccccc2C2=C1Nc1ccc(Br)cc21)c1ccccn1,5.597381909999999
8072,FODJUG,C29 H29 O2 P1 S3,CC(C)c1cc(C(C)C)c(P2C(=O)C3=C(SC(=C3C2=O)C2=CC=CS2)C2=CC=CS2)c(c1)C(C)C,4.499402519999999
8073,FODKOA,C24 H14 N4 S4,CC1=C(c2ccccc2S1)C1=C(C2=NSN=C2C2=NSN=C12)C1=C(C)Sc2ccccc12,5.363091880000001
8074,FODLUH,C30 H26 N4 S4,CCCCC12Sc3ccccc3C1=C1C3=NSN=C3C3=NSN=C3C1=C1c3ccccc3SC21CCCC,4.52661391
8075,FODMAO,C30 H26 N4 S4,CCCCC1=C(c2ccccc2S1)C1=C(C2=NSN=C2C2=NSN=C12)C1=C(CCCC)Sc2ccccc12,5.48146141
8076,FODMES,C28 H18 N4 O2 S4,CC(=O)c1ccc2c(SC(=C2C2=C(C3=NSN=C3C3=NSN=C23)C2=C(C)Sc3cc(ccc23)C(C)=O)C)c1,5.4602365200000005
8077,FODMIW,C28 H18 N4 O2 S4,CC(=O)c1ccc2c(SC3(C)C2=C2C4=NSN=C4C4=NSN=C4C2=C2c4ccc(cc4SC32C)C(C)=O)c1,4.42185007
8078,FODSEY,C14 H12 N2 S1,S=C1N(Cc2ccccc2)C=C2C=CC=CN12,5.532074579999999
8079,FODWAY,C15 H17 B1 F2 N2,CC1=CC(=C2N1[B-](F)(F)[N+]1=C(C)C=C(C)C1=C2C=C)C,4.74593767
8080,FODWIE,C44 H24 F6,FC(F)(F)c1ccc(cc1)c1c2c3ccccc3c3ccccc3c2c(c2ccc(cc2)C(F)(F)F)c2c3ccccc3c3ccccc3c12,5.71303029
8081,FOFDEK,C15 H13 F1 N2 O2 S1,COc1ccccc1NC(=S)NC(=O)c1ccccc1F,5.74051379
8082,FOFFAK,C12 H5 Br1 N4 O2 S1,Brc1cnc2c(c1)C1=NS(=O)(=O)N=C1c1cccnc21,5.3590101699999995
8083,FOFFEO,C12 H4 Br2 N4 O2 S1,Brc1cnc2c(c1)C1=NS(=O)(=O)N=C1c1cc(Br)cnc21,5.19492552
8084,FOFNUL,C28 H25 N1 O3,COC(=O)C(=O)C1C(CC2=C(C1c1ccccc1)c1ccccc1N2C)c1ccccc1,5.827045999999999
8085,FOFQAV,C39 H30 N2,CCCCN1c2ccccc2c2cc(ccc12)C#Cc1ccc(cc1)C(C#N)=C(c1ccccc1)c1ccccc1,5.43846742
8086,FOFQIA,C14 H20 S8,CCSCC1=C(CSCC)SC(S1)=C1SC(=C(SC)S1)SC,5.6077222299999985
8087,FOFVUU,C20 H19 N1 O6,COC(=O)C1(Oc2ccccc2C1=O)C1(CN1)c1ccc(OC)c(OC)c1,6.02623334
8088,FOFWOP,C20 H17 N1 O6,COC(=O)C1NC1(c1ccccc1)C1(Oc2ccccc2C1=O)C(=O)OC,6.633591440000001
8089,FOGFUC,C24 H19 N1 O2,CN1C(c2ccc(C)cc2)C2=C(OC(=O)c3ccccc23)c2ccccc12,5.6596959799999995
8090,FOGHOY,C1 H2 N2 S3,C1SN=S=NS1,5.64064801
8091,FOGHUE,C8 H8 N2 O1 S3,COc1ccc(cc1)C1SN=S=NS1,5.648267199999999
8093,FOGQAT,C14 H14 N4 S1,CC(=NNC(=S)Nc1ccccc1)c1ccccn1,5.941605930000001
8094,FOGQUO,C45 H48 N6,CCN(CC)c1ccc(cc1)C=Cc1c(C#N)c(C=Cc2ccc(cc2)N(CC)CC)c(C#N)c(C=Cc2ccc(cc2)N(CC)CC)c1C#N,4.805530600000001
8095,FOGSEA,C16 H10 N4 O2,O=C1NC(=C2C(=O)NC(=C12)c1ccccn1)c1ccccn1,4.5203552899999995
8096,FOGSOJ,C30 H20,c1ccc2c(c1)C=Cc1cccc3cc4cccc(C=Cc5ccccc25)c4cc13,5.19819089
8097,FOGTEB,C20 H19 N1 O7,COc1ccc(cc1O)C1=C(C(=O)NC1=O)c1cc(OC)c(OC)c(OC)c1,5.49152961
8098,FOGWED,C14 H13 N7 O2,Nc1nc(N)c2nc(CNc3ccc(cc3)C(O)=O)cnc2n1,5.7995625
8099,FOHBAG,C28 H27 N3 O3,CCOC(=O)C(Cc1ccccc1)NC(c1ccccc1)=C1C(=NN(C1=O)c1ccccc1)C,6.02895447
8100,FOHBUC,C20 H14 N4 O2,O=C1N(C(=O)c2ccccc12)c1cccc2CCN(c3ncccn3)c12,5.5791502699999995
8101,FOHGAN,C22 H14 N4,N#CC(=Cc1ccccn1)c1ccc(cc1)C(=Cc1ccccn1)C#N,5.482549860000001
8102,FOHGER,C22 H14 N4,N#CC(=Cc1ccc(cc1)C=C(C#N)c1ccccn1)c1ccccn1,5.2602328499999995
8103,FOHGIT,C18 H15 N1 O3 S2,COc1ccc(cc1)C1=C(C)N(OC(=O)c2ccccc2)C(=S)S1,5.7894942799999995
8104,FOHGUH,C36 H20 O2,O=C1Oc2ccc3ccc4ccc5ccccc5c4c3c2C2=C1Cc1ccc3ccc4ccccc4c3c21,5.29424708
8105,FOHHAO,C36 H20 O2,O1C=Cc2ccc3ccc4ccccc4c3c2C2=C1Oc1ccc3ccc4ccc5ccccc5c4c3c21,5.687179479999999
8106,FOHHUF,C18 H8 N2 O6,O=C(N1C(=O)C(=O)c2ccccc12)C(=O)N1C(=O)C(=O)c2ccccc12,6.3584843399999995
8107,FOHHUI,C25 H15 N3 O1,N#CC(=Cc1ccccc1)C1=Nc2c(O1)c1ccccc1nc2c1ccccc1,5.68309777
8108,FOHJAQ,C31 H30 N1 O3 P1,CCOC(=O)C(O)CC(=C)c1ccccc1N=P(c1ccccc1)(c1ccccc1)c1ccccc1,5.96038178
8109,FOHLAP,C13 H10 O4,CC(=O)C=C(O)C1=Cc2ccccc2OC1=O,5.89561868
8110,FOHLOE,C17 H17 N1,CN(C)Cc1c2ccccc2cc2ccccc12,5.45071254
8111,FOHMEX,C15 H14 N2 O3 S1,COc1ccc(cc1)C(=O)NC(=S)Nc1cccc(O)c1,6.08909163
8112,FOHMIB,C20 H16 N2 O2 S1,Oc1cccc(NC(=S)NC(=O)c2ccc(cc2)c2ccccc2)c1,5.7195610199999996
8113,FOHMOH,C15 H14 N2 O3 S1,COc1cccc(c1)C(=O)NC(=S)Nc1cccc(O)c1,6.07113212
8115,FOHXEF,C8 H12 N4 S2,CCCSC1=NC(=S)N2CCNC2=N1,6.23140718
8116,FOJFEQ,C12 H12 N2 O3,CNC(=O)C(C)N1C(=O)c2ccccc2C1=O,6.865160329999999
8117,FOJGAO,C24 H19 F4 N1,CN(C)c1ccc(C=Cc2ccc(cc2)C=Cc2c(F)c(F)cc(F)c2F)cc1,4.6814466900000005
8118,FOJJEU,C14 H15 N1,CN(c1ccccc1)C(C)=C1C=CC=C1,6.16582774
8119,FOJJOE,C30 H24 N3 O1 P1,O=P(c1ccccc1)(c1ccccc1)c1ccccc1NC(=Cc1ccccn1)c1ccccn1,5.78486835
8120,FOJLOI,C21 H19 N1 O2,CCCN=C(c1ccccc1)C1=C(C)C(=O)C(=O)c2ccccc12,5.734255179999999
8121,FOJNUN,C23 H25 N1 O6 S1,COc1cc2CCC(NC(C)=O)C3=CC(=O)C(=CC=C3c2c(OC)c1OC(C)=O)SC,5.51112181
8122,FOJQUQ,C9 H12 N4 S1,CNC(=S)NN=C(C)c1ccccn1,6.00718537
8123,FOJSED,C35 H27 N1 S2,CC(C)(C#N)C1C(C2C(SC(=S)c3ccccc3)c3cccc4cccc2c34)c2cccc3cccc1c23,5.84500551
8124,FOJTAA,C29 H18,C1CC23C=CC=CC2(C1)C1=C3C#Cc2ccccc2C#Cc2ccccc2C#C1,5.20390527
8125,FOJTEE,C31 H18,C1CC23C=CC=CC2(C1)C1=C3C#Cc2ccccc2C#CC#Cc2ccccc2C#C1,5.651804670000001
8126,FOJTII,C49 H26,C1CC23C4C=CC(C5=C4C#Cc4ccccc4C#Cc4ccccc4C#C5)C2(C1)C1=C3C#Cc2ccccc2C#Cc2ccccc2C#C1,4.95029516
8127,FOJTOO,C24 H14 S2,S1C2=C3C(=C1c1ccccc1)C=CC1=C3C(=C(S1)c1ccccc1)C=C2,4.32878714
8128,FOJTUU,C32 H18 S2,S1C2=C3C(=C1c1ccc4ccccc4c1)C=CC1=C3C(=C(S1)c1ccc3ccccc3c1)C=C2,4.202798420000001
8129,FOJVAC,C36 H22 S2,S1C2=C3C(=C1c1ccc(cc1)c1ccccc1)C=CC1=C3C(=C(S1)c1ccc(cc1)c1ccccc1)C=C2,4.0866058
8130,FOKBUD,C20 H20 O3,COc1ccc2C(=O)C(=C(c3ccccc3)c2c1OC(C)C)C,5.9530347
8131,FOKDOZ,C16 H11 Br1 O2,COc1ccc2c(c1)C(=O)C(=C2c1ccccc1)Br,5.69724769
8132,FOKFOB,C23 H22 O2,O=C(C(C1C=CCCCC=C1)C(=O)c1ccccc1)c1ccccc1,5.6798324
8133,FOKGAO,C16 H24 O2,CC(=C1C(=O)C(=C(C)C(C)(C)C)C1=O)C(C)(C)C,6.1198404900000005
8134,FOKGUJ,C11 H9 N5 O2,CN1C(=[NH+]c2ccccc12)C1=C(NN=N1)C(=O)[O-],6.32447012
8135,FOKJUN,C16 H13 N1 O3 S2,O=C1Oc2ccccc2C(=C1)OCCSC(=S)N1C=CC=C1,5.781602979999999
8136,FOKKEY,C20 H17 N1 O3,CCOC1(CC2=CC(=O)c3ccccc3C2=[N+]1[O-])c1ccccc1,5.511938150000001
8137,FOKKIC,C42 H34 N2 O2 S3,CC(C)c1cc2c(cc1N1c3ccccc3Sc3ccccc13)c1cc(N3c4ccccc4Sc4ccccc34)c(cc1S2(=O)=O)C(C)C,5.25506268
8138,FOKKOI,C44 H38 N2 O2 S3,CC(C)c1cc2c(cc1N1c3ccccc3Sc3cccc(C)c13)c1cc(N3c4ccccc4Sc4cccc(C)c34)c(cc1S2(=O)=O)C(C)C,5.82650177
8139,FOKKUO,C44 H38 N2 O2 S3,CC(C)c1cc2c(cc1N1c3ccccc3Sc3cccc(C)c13)c1cc(N3c4ccccc4Sc4cccc(C)c34)c(cc1S2(=O)=O)C(C)C,5.72391485
8140,FOKLAV,C38 H26 N2 O2 S3,Cc1cc2c(cc1N1c3ccccc3Sc3ccccc13)c1cc(N3c4ccccc4Sc4ccccc34)c(C)cc1S2(=O)=O,5.25370211
8141,FOKSIH,C12 H6 Br2 N4,Brc1cccc2nc3nc4cccc(Br)n4c3n12,5.8251412
8142,FOKSON,C20 H12 N4,c1ccc2c(c1)ccc1nc3nc4ccc5ccccc5n4c3n21,5.51955734
8143,FOLDOC,C22 H38 P6 S4,CP(C)(=S)CP(CP(C)(C)=S)c1cccc2cccc(P(CP(C)(C)=S)CP(C)(C)=S)c12,5.32145847
8144,FOLGEU,C28 H16 S2,S1c2ccccc2c2cc3cc4ccccc4c(C4=Cc5ccccc5S4)c3cc12,4.93151931
8145,FOLGUK,C28 H24 O4,COc1ccc(cc1)C(=CC=C1C=C(OC)c2ccccc2C1=O)c1ccc(OC)cc1,4.74539343
8146,FOLKOI,C30 H25 N3 O5,CN1C(c2ccc(cc2)c2ccccc2)C2(CC31C(=O)c1ccccc1C3=O)C(=O)N(C)C(=O)N(C)C2=O,6.29372124
8147,FOLMEB,C21 H18 Cl1 N1 O3,CCOC(=O)C1=C(C=CN2C1=CC(=C2C1CC1)C=O)c1ccc(Cl)cc1,5.559830200000001
8148,FOLNEZ,C30 H23 N1,C1C(=CC(=C(N=C1c1ccccc1)c1ccccc1)c1ccccc1)c1ccccc1,5.7663646
8149,FOLPIG,C34 H28 Br1 N3 O5,COC(=O)C1=NN(C(C1c1ccccc1)C(=O)C1C(C(=O)N1c1ccc(OC)cc1)c1ccccc1)c1ccc(Br)cc1,6.18378726
8150,FOLPOM,C36 H30 Br1 N3 O5,COC(=O)C1=NN(C(C=CC2C(C(=O)N2c2ccc(OC)cc2)c2ccccc2)C1C(=O)c1ccccc1)c1ccc(Br)cc1,6.09371757
8151,FOLQAB,C14 H17 N1 O1,CCCCC1=CC=C2N1C=CC(=C2C)C=O,5.6991524899999995
8152,FOLQEF,C19 H18 Cl1 N1 O1,CCCCC1=C(C=O)C=CN2C1=CC=C2c1ccc(Cl)cc1,5.47003263
8153,FOLQIJ,C19 H19 N1 O1,CC(C)(C)c1ccc(cc1)C1=CC=C2N1C=CC=C2C=O,5.56880995
8154,FOLQOP,C15 H10 Cl1 N1 O1,Clc1ccc(cc1)C1=CC=C2N1C=CC=C2C=O,5.57806182
8155,FOLQUV,C20 H21 N1 O1,CC1=C(C=O)C2=CC=C(N2C=C1)c1ccc(cc1)C(C)(C)C,5.3298939899999995
8156,FOLVAG,C27 H22 O1,C1CC2CC1C1C2C(c2ccccc12)=C1c2ccccc2Oc2ccccc12,5.81561721
8157,FOLVEK,C17 H13 N1 O2,OC(=O)c1ccccc1Nc1cccc2ccccc12,5.98541625
8158,FOLVOR,C20 H18 O7,CC1Oc2c3c(C)cc(OC(C)=O)c4OC(=O)C(=O)c(c(O)c2C1(C)C)c34,5.4773797
8159,FOLYOU,C17 H22 P2,CP(C)(C)=C1C2=CC=Cc3cccc(C=P1(C)C)c23,5.110026
8160,FOLYUA,C15 H19 P1,Cc1cccc2cccc(C=P(C)(C)C)c12,5.67602281
8161,FOMGEU,C34 H42 O8,CCCOc1cc(C=Cc2c(OC)cc(OC)cc2OC)c(OCCC)cc1C=Cc1c(OC)cc(OC)cc1OC,5.15519689
8162,FOMHEV,C12 H9 Cl1 F1 N3,Fc1ccc(cc1)N=NNc1ccc(Cl)cc1,5.905686899999999
8163,FOMHUL,C14 H14 N2 O4,COc1cccc(c1)C=C1C(=O)N(C)C(=O)N(C)C1=O,5.8099028200000005
8164,FOMJAT,C14 H14 N2 O4,COc1ccc(cc1)C=C1C(=O)N(C)C(=O)N(C)C1=O,5.92527909
8165,FOMJEX,C15 H17 N3 O3,CN(C)c1ccc(cc1)C=C1C(=O)N(C)C(=O)N(C)C1=O,5.31601618
8166,FOMKAW,C28 H28,C1CC2CC1C1C2C(c2ccccc12)=C1C2C3CCC(C3)C2c2ccccc12,5.77997029
8167,FOMLEB,C40 H46 N2 O4 P2,CCP(CC)(CC)=C1C=C2C(=O)N(Cc3ccccc3)C(=O)C3=C2C2=C1C(=O)N(Cc1ccccc1)C(=O)C2=CC3=P(CC)(CC)CC,4.33558998
8168,FOMLID,C19 H14 O3,Oc1ccccc1C=C1CC2Oc3ccccc3C=C2C1=O,5.64500183
8169,FOMMEA,C14 H11 Br1 N2 O2,ON=C(Nc1ccc(Br)cc1)C(=O)c1ccccc1,6.15657586
8170,FOMQEF,C28 H20 N4,c1ccc(cc1)N=Nc1cccc(N=Nc2ccccc2)c1c1cccc2ccccc12,5.4931623
8171,FOMROO,C34 H25 N1 O2,O=C(OC(c1ccccc1)=C(N=C(c1ccccc1)c1ccccc1)c1ccccc1)c1ccccc1,5.928000229999999
8172,FOMSAB,C17 H9 Cl1 O1,Clc1ccc2C(=O)c3ccccc3c3cccc1c23,5.480917170000001
8173,FOMSUY,C17 H11 N3 O2,O=C1Oc2ccccc2C=C1C1=NC(=NN1)c1ccccc1,5.72609175
8174,FOMTUZ,C18 H16 N2 O4 S2,CCCN1C(=O)C(=O)C2=C1C=C(S2)C1=CC2=C(S1)C(=O)C(=O)N2CCC,4.75927124
8175,FOMVAH,C24 H28 N2 O4 S2,CCCCCCN1C(=O)C(=O)C2=C1C=C(S2)C1=CC2=C(S1)C(=O)C(=O)N2CCCCCC,4.74920303
8176,FOMVEL,C34 H36 N6 O2 S2,CCCCC(CC)CN1C(=O)C(=C(C#N)C#N)C2=C1C=C(S2)C1=CC2=C(S1)C(C(=O)N2CC(CC)CCCC)=C(C#N)C#N,3.7377558499999997