,ID,formula,smiles,HOMO_LUMO_gap
10040,HAGTIU,C16 H18 N4 O3,CCOC(=O)C=C(C)NC1=NN(N=C1C(C)=O)c1ccccc1,6.0983435
10041,HAGVUJ,C11 H11 B1 F2 N2 S1,CCSC1=C2C=CC=[N+]2[B-](F)(F)N2C=CC=C12,5.152203650000001
10042,HAGWAQ,C12 H13 B1 F2 N2 S1,CCCSC1=C2C=CC=[N+]2[B-](F)(F)N2C=CC=C12,5.10240681
10043,HAGWEU,C17 H15 B1 F2 N2 S1,Cc1cccc(C)c1SC1=C2C=CC=[N+]2[B-](F)(F)N2C=CC=C12,4.98213249
10044,HAGXET,C10 H8 N2 S1,[S-]c1cccc[n+]1c1ccccn1,5.891536970000001
10045,HAGYIY,C11 H9 N1 O1,ON=CC1=CC=C2C=CC=CC=C12,5.05805225
10046,HAHCAV,C20 H16 N2 O4,COc1ccc(cc1)[n+]1noc([O-])c1C(=O)C=CC=Cc1ccccc1,5.52962556
10047,HAHCOI,C12 H6 S2,S1C=C2C=CC3=CSc4ccc1c2c34,5.59874248
10048,HAHCUO,C14 H10 S4,CSC1=C2C=CC3=C(SC)Sc4ccc(S1)c2c34,5.2697568299999995
10049,HAHFIF,C20 H16 N4 O2,CCC1=C2C=C3N(Cc4cc5ccccc5nc34)C(=O)C2=CN(N)C1=O,4.59654717
10050,HAHGIJ,C18 H10 F6 N2 O1,CN(C)c1ccc(cc1)N=C1C(=C(F)C(=O)c2c(F)c(F)c(F)c(F)c12)F,3.9940871000000002
10051,HAHHON,C18 H16 N4 O1 S1,Cc1ccc(cc1)c1cc[n+]([N-]C(=O)c2ccccc2)c(SN)n1,5.3503025300000004
10052,HAHJAC,C17 H16 N4 O1,CN(C)c1ccc(cc1)N=Nc1ccc(O)c2ncccc12,5.11519617
10053,HAHJEG,C17 H15 N3 O1,CCc1ccc(cc1)N=Nc1ccc(O)c2ncccc12,5.533435150000001
10054,HAHJIJ,C18 H16 O2,CC1(C(=O)C(=O)C1(C)c1ccccc1)c1ccccc1,6.45454054
10055,HAHMOU,C25 H17 Cl4 N3 O3,CCCCOC1=NC(C=C1)=C(C1=CC=C(N1)C(C#N)=C1OC(=O)C(=C1Cl)Cl)c1c(Cl)cccc1Cl,4.0912317400000004
10056,HAHMUA,C22 H8 Cl2 F5 N3 O3,COC1=NC(C=C1)=C(C1=CC=C(N1)C(C#N)=C1OC(=O)C(=C1Cl)Cl)c1c(F)c(F)c(F)c(F)c1F,4.15898809
10057,HAHNAG,C26 H14 S6,CSC1=C(SC)SC(S1)=C1SC2=C(S1)C#Cc1ccccc1C#Cc1ccccc1C#C2,4.26456826
10058,HAHPEO,C13 H19 N1 O4,CCOC(=O)C1=C(C=CN(C)C)C(C)(C)OC1=O,5.93589154
10059,HAHQIR,C42 H34 N2,CC(C)c1cccc2c1nc1ccccc1c2c1cccc2cccc(c12)c1c2ccccc2nc2c(cccc12)C(C)C,5.28254618
10060,HAHROY,C29 H30 Cl2 N4 O2,CCN(CC)Cc1cc(ccc1O)N=C1C=CN(CN(C)C(=O)c2ccc(Cl)cc2)c2cc(Cl)ccc12,6.3418854
10061,HAHROZ,C15 H14 Br1 N1 O3,BrC1=C(N2CCOCC2)C(OC1=O)=Cc1ccccc1,5.75792908
10062,HAHRUG,C16 H8 Cl1 N1 O4,Oc1cccc2C(=O)C(=C(Cl)C(=O)c12)N=C1C=CC(=O)C=C1,5.765820379999999
10063,HAHSAN,C16 H8 Cl1 N1 O3,ClC1=C(N=C2C=CC(=O)C=C2)C(=O)c2ccccc2C1=O,5.53670052
10064,HAHSEP,C28 H30 N4 O6,CCOC(=O)C1=CC2=C(CC)C(=C(N2C=N1)C(=O)C(=O)C1=C(C)C(=C2C=C(N=CN12)C(=O)OCC)CC)C,5.85208047
10065,HAHTOC,C15 H19 N5 O1,COc1ccc(cc1)N=NC(C#N)=C(N)N1CCCCC1,5.89833982
10066,HAHWOC,C13 H12 N2 O3,CN(C)C=C1N=C(OC1=O)C(=O)c1ccccc1,5.77480014
10067,HAJBEB,C32 H34 N2 P2,Cc1cccc(C)c1N1P(N(C(=C1C)C)c1c(C)cccc1C)P(c1ccccc1)c1ccccc1,5.48391043
10069,HAJJIN,C24 H16 S3,S1C(=CC2=C1SC1=C2C=C(S1)C=Cc1ccccc1)C=Cc1ccccc1,5.7407859
10070,HAJJOT,C20 H18,Cc1cc(C)c2ccc3c(C)cc(C)c4ccc1c2c34,5.437923180000002
10071,HAJJUX,C23 H15 N3,N1c2ccccc2C2=C1N=C(N1c3ccccc3C=C21)c1ccccc1,5.67357378
10072,HAJMUA,C22 H17 O3 P1,O=C1CC(C(=O)O1)=P(c1ccccc1)(c1ccccc1)c1ccccc1,6.078479199999999
10074,HAJYUO,C15 H17 N5 O1,CCOc1cc(ccc1C=NC(C#N)=C(N)C#N)N(C)C,5.280369270000001
10075,HAKDII,C22 H23 N5 O1,CCN(CC)c1ccc(C=NC(C#N)=C(N)C#N)c(OCc2ccccc2)c1,5.254518449999999
10076,HAKFEH,C25 H27 N5 O5,COCCOCCOc1ccc2C(NC(=Nc3cc(OC)ccn3)c2c1)=Nc1cc(OC)ccn1,5.652621010000001
10077,HAKGUW,C24 H20 N2,CCc1c2ccccc2nc2ccc3nc4ccccc4c(CC)c3c12,5.8093585899999995
10078,HAKHAD,C24 H18 N2,CC1CCc2c3ccccc3nc3ccc4nc5ccccc5c1c4c23,5.81344031
10079,HAKLAH,C20 H16 O3,CC(C)Oc1ccc(cc1)C#CC1=Cc2ccccc2OC1=O,5.73888111
10080,HAKPAL,C30 H16 O2,O=C1c2ccc(cc2C(=O)c2cc(ccc12)C#Cc1ccccc1)C#Cc1ccccc1,5.277648129999999
10081,HAKPEQ,C32 H25 F1 N4 O2 S1,CN1CC(c2ccc(F)cc2)C2(SC3=NCN(CN3C2=O)c2ccccc2)C21C(=O)c1cccc3cccc2c13,5.9892258499999995
10082,HAKQER,C16 H20 N2 S2,C1CCC2NC(C(NC2C1)C1=CC=CS1)C1=CC=CS1,6.24120328
10083,HAKSES,C54 H40 F2 P4,Fc1c(P(c2ccccc2)c2ccccc2)c(P(c2ccccc2)c2ccccc2)c(F)c(P(c2ccccc2)c2ccccc2)c1P(c1ccccc1)c1ccccc1,5.70649955
10084,HAKSIW,C42 H48 F2 P4,CC(C)P(C(C)C)c1c(F)c(P(c2ccccc2)c2ccccc2)c(P(C(C)C)C(C)C)c(F)c1P(c1ccccc1)c1ccccc1,5.71303029
10085,HAKSOC,C38 H40 F2 P4,CCP(CC)c1c(F)c(P(c2ccccc2)c2ccccc2)c(P(CC)CC)c(F)c1P(c1ccccc1)c1ccccc1,5.75466371
10086,HAKWIZ,C30 H24 N4,N#CC(C#N)=C1C=C(CCCc2ccccc2)C(C=C1CCCc1ccccc1)=C(C#N)C#N,4.38103299
10088,HAKXIC,C35 H36 N4 O2,CCN(CC)c1ccc2C=C(Oc2c1)C=CC1=CC(CC(C)(C)C1)=CC=CC1=C(C#N)C(OC1(C)C)=C(C#N)C#N,3.42264801
10089,HAKZEA,C23 H22 O6,COC(=O)C1=C(C2C3CC(C12)c1c(OC)c2ccccc2c(OC)c31)C(=O)OC,5.673301670000001
10090,HAKZIE,C26 H32 N4 O2,CCN(CC)CN1C(=O)C(c2ccccc12)=C1C(=O)N(CN(CC)CC)c2ccccc12,5.098052989999999
10091,HALBAA,C13 H7 N1 S6,N#Cc1ccc2SC(Sc2c1)=C1SC2=C(SCCS2)S1,5.204721609999998
10092,HALCAA,C17 H16 N2 O5,COC(=O)C1C2N(N=Cc3ccccc23)C(=C1C(=O)OC)C(C)=O,5.91058495
10093,HALDOL02,C21 H23 Cl1 F1 N1 O2,OC1(CCN(CCCC(=O)c2ccc(F)cc2)CC1)c1ccc(Cl)cc1,6.63794527
10094,HALFEH,C20 H12 N2 O1 S4,O=C(Nc1cccc2cccnc12)C1=CSC(S1)=C1Sc2ccccc2S1,4.97587387
10095,HALFIL,C19 H14 N2 O1 S6,O=C(Nc1cccc2cccnc12)C1=CSC(S1)=C1SC2=C(SCCCS2)S1,4.8939676
10096,HALFOR,C20 H16 N6,C(N1C=NC=N1)c1c2ccccc2c(CN2C=NC=N2)c2ccccc12,5.28526732
10097,HALJIP,C16 H20 N4 O3 S1,COc1cccc(c1)C(=O)N(NC(C)(C)C)C(=O)C1=C(C)N=NS1,6.19031798
10098,HALKUC,C19 H15 N3 O4,O=C1CCC(N2C(=O)c3cccc(Nc4ccccc4)c3C2=O)C(=O)N1,5.78976639
10099,HALLIP,C15 H8 F6 N2,Cc1cc(C)c2nc3c(F)c(c(F)c(F)c3nc2c1)C(F)(F)F,5.45805961
10100,HALLOV,C17 H18 O5,CC1=C(O)C(C)(O)C(=O)C(=C1O)C(=O)CCc1ccccc1,5.961470240000001
10101,HALNUD,C32 H22 O2 S2,O=S(C1=C(OC(=C1)c1ccccc1)c1ccccc1)C1=C(SC(=C1)c1ccccc1)c1ccccc1,5.8085422499999995
10102,HALQAO,C27 H28 F3 N1 O4 S1,CCOC(=O)C(Nc1ccc(OC)cc1)(C(C)c1ccccc1S(=O)c1ccc(C)cc1)C(F)(F)F,5.5756128
10103,HALQES,C20 H16 F3 N1 O2,CC(c1ccccc1)C(N=C1C=CC(=O)C=C1)(C1=CC=CO1)C(F)(F)F,6.341069050000001
10104,HALSIX,C32 H28 O2,Cc1cc(C)c(c(C)c1)C1=C(C(=O)c2cc3ccccc3cc2C1=O)c1c(C)cc(C)cc1C,5.59629345
10105,HALWOI,C23 H25 N3 O2,CC(=O)C1=C(Nc2ccccc2)N2C=CC=CC2=C1C(=O)NC1CCCCC1,6.022151620000001
10106,HAMDEG,C13 H9 N1 O1,Nc1ccc2c3ccccc3C(=O)c2c1,5.40608587
10107,HAMDOQ,C19 H19 Br1 O1,CCCCCCc1ccc2c(c1)C(=O)c1cc(Br)ccc21,5.84201226
10108,HAMDOR,C31 H34 Cl2 N4 O3,COc1cc(NC(C)CCCNC(=O)NC(C)c2ccccc2)c2nccc(C)c2c1Oc1ccc(Cl)c(Cl)c1,5.9100407200000005
10109,HAMDUV,C21 H20 O5,COC(=O)C1=CCCCC2=COC(=CC2=C1C(=O)OC)c1ccccc1,5.717112
10110,HAMFUZ,C42 H39 Cl1 N2 O5,CCOC(=O)C1=C(N(C2CCCCC2)C(=O)C21C1=C(CC(C)(C)CC1=O)N(c1ccc(Cl)cc1)C1=C2C(=O)c2ccccc12)c1ccccc1,5.3413227800000005
10111,HAMGOS,C27 H30 N4 O6,Oc1cccc(C=NCCN(CCNC=C2C=CC=C(O)C2=O)CCNC=C2C=CC=C(O)C2=O)c1O,5.21125235
10112,HAMJAJ,C21 H15 N1 O1 S1,Oc1ccc(C=Cc2ccccc2)cc1C1=Nc2ccccc2S1,5.93643577
10113,HAMJIQ,C19 H14 N2 O2,COc1ncc2C(Oc3ccccc3c2n1)=Cc1ccccc1,5.583231980000001
10114,HAMKAJ,C24 H22 N2 O2 S1,Cc1ccc(C)c(c1)C1(C)CC(C1)C1=CSC(=N1)N1C(=O)c2ccccc2C1=O,5.9010609700000005
10115,HAMKUD,C22 H21 N3 O1,CC(C)(C)c1ccc(cc1)C1=NC(=NO1)Nc1cccc2ccccc12,6.04011114
10116,HAMLEO,C14 H6 N4,N#CC(C#N)=C1c2cccnc2c2ncccc12,5.678471829999999
10117,HAMROE,C17 H14 N2 O2 S1,O=C1Oc2ccc(CNC(=S)Nc3ccccc3)cc2C=C1,5.77126266
10118,HAMRUK,C16 H12 N2 O2 S1,O=C1Oc2ccc(NC(=S)Nc3ccccc3)cc2C=C1,5.71629566
10119,HAMSEU,C13 H12 O3,COc1ccc2OC3CCC(=O)C3=Cc2c1,5.772623220000001
10120,HAMSOE,C17 H10 O3 S4,O=C1SC(=C(S1)SC(=O)c1ccccc1)SC(=O)c1ccccc1,6.030859260000001
10121,HAMTUN,C14 H16 F1 N5,CCN(CC)c1nnc(F)c2N3C=CC=C(C)C3=Nc12,5.83139982
10122,HAMVAT,C26 H24 O1,CC(C)(C)c1ccc(CC2=C(c3ccccc3)c3ccccc3C2=O)cc1,5.8999725100000004
10123,HAMXUR,C21 H19 N3 O3,CN(C)C=CC(NC(=O)c1ccccc1)=C1N=C(OC1=O)c1ccccc1,4.97478542
10124,HAMYEC,C22 H21 N3 O4,CN(C)C=CC(NC(=O)OCc1ccccc1)=C1N=C(OC1=O)c1ccccc1,5.11356348
10125,HAMYUS,C19 H13 F3 N2 O3,CC(NC(=O)c1cccc(c1)C(F)(F)F)=C1N=C(OC1=O)c1ccccc1,5.79847404
10126,HAMZAZ,C18 H14 N2 O5,CN(C)C(=O)c1ccc(NC(=O)c2ccccc2)c2C(=O)OC(=O)c12,6.38569573
10127,HAMZIF,C26 H22 N2 O1,CCOC(Nc1cccc2cccnc12)c1c2ccccc2cc2ccccc12,5.32608439
10128,HAMZIH,C8 H7 B1 Br1 F2 N1 O1,CC1=[NH+][B-](F)(F)Oc2ccc(Br)cc12,6.145147090000001
10129,HANFEK,C23 H19 N1 O4,COC(=O)c1cc2ccc3ccccc3c2nc1c1ccc(OC)c(OC)c1,6.0205189400000005
10130,HANHEJ,C15 H18 N2 S4,C1CSCCSc2nnc(SCCSC1)c1ccccc21,5.8624208
10131,HANHOU,C15 H12 O3,OC(C=CC1=CC=CO1)=CC(=O)c1ccccc1,5.552483119999999
10132,HANHUA,C17 H15 Cl1 O2,COC(OC)c1c2ccccc2c(Cl)c2ccccc12,5.42867132
10133,HANLIU,C20 H13 N1 O2,O=C1C=CC(=O)C2=C(NC(=C12)c1ccccc1)c1ccccc1,5.4090791199999995
10134,HANNAL,C18 H13 N1 O4,COc1cc2ccnc3C4=CC(=O)C(=CC=C4c(c1OC)c23)O,5.18485731
10135,HANTAT,C20 H17 N5 O2 S3,CC(C)(C)OC(=O)CN1N=C2C(=N1)C(=C1[N-][S+]=NC1=C2C1=CC=CS1)C1=CC=CS1,3.67897926
10136,HANXAY,C18 H11 N1 O1,O=C(c1ccccc1)C(=CC#Cc1ccccc1)C#N,5.88364567
10137,HANXEC,C20 H19 N3 O1,Cc1ccc2N3N=NC(=C3C(=O)c2c1)c1ccc(cc1)C(C)(C)C,5.55983019
10139,HAPBOS,C27 H17 Cl2 N1 O1,Clc1cccc(Cl)c1c1[n+]([O-])c2ccccc2c(c2ccccc2)c1c1ccccc1,5.75384737
10140,HAPFOW,C14 H17 N1 O4,CC1=CC(=O)C(=C(O)C=CN2CCCCC2)C(=O)O1,5.751942570000001
10141,HAPJUF,C16 H12 N2 S3,CC1=CSC(=C1)C1=CC=C(C2=CC(=CS2)C)C2=NSN=C12,4.82049686
10142,HAPKAM,C20 H12 N4 S4,CC1=CSC(=C1)C1=CC2=C(C=C(C3=CC(=CS3)C)C3=NSN=C23)C2=NSN=C12,4.5108312999999995
10143,HAPROI,C50 H38 N2 O1,CCC(Nc1ccc2ccc3cccc4ccc1c2c34)c1cccc2c1Oc1c(cccc21)C(CC)Nc1ccc2ccc3cccc4ccc1c2c34,5.2303003200000004
10144,HAPVAV,C25 H44 N1 P1,CCC(CC)(CC)P=Nc1c(cc(cc1C(C)(C)C)C(C)(C)C)C(C)(C)C,5.49289018
10145,HAPYEF,C22 H13 N3 O1,N1c2ccccc2C2=C1c1ccccc1Oc1nc3ccccc3nc21,5.67357378
10146,HAQXIJ,C27 H22 N4 O3,CCOC1=NC(=CC(C#N)=C(C#N)C#N)C(=C(C)C1(O)c1ccccc1)c1ccc(OC)cc1,5.01805151
10150,HARDIP,C40 H32 N4,CCCCc1cnc2ccc3c(nc4cccc5c4c3c3cccc4nc6c(ccc7ncc(CCCC)cc67)c5c34)c2c1,4.195179230000001
10151,HARFUE,C7 H14 N2 O7 P2,CC(C)(N1C=[NH+]C=C1)C(O)(P(O)(O)=O)P(O)(=O)[O-],5.9682730799999995
10152,HARHIT,C15 H15 N3 O3,CN(C)c1ccc(C=CC=C2C(=O)NC(=O)NC2=O)cc1,4.69695718
10153,HARMAO10,C8 H7 N1 S5,CNC(=S)C1=CSC(S1)=C1SC=CS1,4.9307029700000005
10154,HARREA,C21 H15 I1 N1 O1 P1 S1,CN1C2=C(C=C(I)S2)c2c3ccccc3ccc2P1(=O)c1ccccc1,5.86541405
10155,HARVIH,C16 H16 N2 O2,O=CC1=C2NC3=C(CCCC3(C=C2CCC1)C#N)C=O,5.5620071
10157,HASBOS,C16 H22 N4 O1,CN(C)C1=NNC(=[NH+]C21CCCCC2)c1ccccc1[O-],5.73371094
10158,HASCOT,C22 H18 N4 O1,CN(c1ccccc1)c1nnc(nc1c1ccccc1)c1ccccc1O,6.02895447
10160,HASLOE,C24 H20 O3,COc1cccc(OC)c1C1=C(c2ccc(C)cc2)c2ccccc2C1=O,5.88201299
10161,HASLUK,C22 H13 F3 O1,FC(F)(F)c1ccc(cc1)C1=C(C(=O)c2ccccc12)c1ccccc1,5.50513531
10162,HASVUV,C12 H12 O8,CCOC(=O)C1=C(O)C(=O)C(=C(O)C1=O)C(=O)OCC,6.27576173
10163,HASWEG,C17 H10 N2 O3,O=C1N(c2cc[n+]([O-])cc2)C(=O)c2cccc3cccc1c23,5.2017283700000005
10164,HASWIK,C17 H10 N2 O3,O=C1N(c2ccc[n+]([O-])c2)C(=O)c2cccc3cccc1c23,5.20281683
10165,HASXIK,C35 H34 N6,CCC1=C2NC(=C1CC)c1cccc(n1)C1=C(CC)C(=C(N1)c1cccc(n1)C1=CC=C(N1)c1cccc2n1)CC,5.50431896
10166,HASXUW,C42 H50 N6,CCC1=C2NC(=C1CC)c1cccc(n1)C1=C(CC)C(=C(N1)C1=C(CC)C(=C(N1)c1cccc(n1)C1=C(CC)C(=C2N1)CC)CC)CC,5.34812562
10167,HASYOR,C45 H36 O1,CCCCc1cc2c3ccccc3c3ccccc3c2c2c1C(=O)c1c(CCCC)cc3c4ccccc4c4ccccc4c3c21,5.176966
10170,HATHAO,C21 H23 N1 O6,COc1cc2CCC(NC(C)=O)C34OC(C=C3c2c(OC)c1OC)C(=O)C=C4,6.151133589999999
10171,HATQOL,C26 H21 N3,C(N1c2ccccc2N(N=C1c1ccccc1)c1ccccc1)c1ccccc1,6.10052041
10172,HATXEF,C14 H12 N4 O1 S1,Oc1cccnc1N=C1NN=C(CS1)c1ccccc1,6.141337490000001
10173,HATXOP,C26 H25 N2 P1,CN(C)c1ccccc1N=P(c1ccccc1)(c1ccccc1)c1ccccc1,5.44254912
10174,HATZOU,C20 H15 N1 O3,Oc1ccc(CCN2C(=O)c3cccc4cccc(C2=O)c34)cc1,5.756568509999999
10175,HAVFAO,C32 H21 N1 O2,O=C1c2ccccc2C(=O)c2cc(ccc12)c1ccc(cc1)N(c1ccccc1)c1ccccc1,4.516545689999999
10176,HAVGUH,C21 H21 N1 O2,CC(C)(C)c1ccc(CON=C2C(=O)C=Cc3ccccc23)cc1,6.0801118800000005
10177,HAVHOB,C10 H9 N3 O1,Nc1ccc(cc1)C1=NNC(=O)C=C1,5.87003998
10178,HAVJIX,C10 H9 N3 O1,Nc1ccccc1C1=NNC(=O)C=C1,5.82595754
10179,HAVLAR05,C24 H16 O1,O=C1C(Cc2ccccc12)=Cc1c2ccccc2cc2ccccc12,5.29914512
10180,HAVLIZ,C25 H18 O1,O=C1C(CCc2ccccc12)=Cc1c2ccccc2cc2ccccc12,5.2928865
10181,HAVROL10,C20 H12 S2,S1Sc2c3ccccc3ccc2c2ccc3ccccc3c12,5.772895340000001
10182,HAVWAF,C32 H22,c1ccc(cc1)C=Cc1cc2ccc3cc(C=Cc4ccccc4)cc4ccc(c1)c2c34,5.6501719900000005
10183,HAWDUH,C22 H12 N8 S5,S1c2ccc(Sc3nnc(Sc4ccc(Sc5nnc(Sc6ccc1cc6)nn5)cc4)nn3)cc2,5.12989031
10184,HAWFAP,C28 H20 N8 O4 S5,CCOC(=O)c1cc2Sc3nnc(Sc4ccc(Sc5ccc(Sc6nnc(Sc1cc2C(=O)OCC)nn6)cc5)cc4)nn3,5.537788969999999
10185,HAWFET,C29 H22 N8 O4 S4,CCOC(=O)c1cc2Sc3nnc(Sc4ccc(Cc5ccc(Sc6nnc(Sc1cc2C(=O)OCC)nn6)cc5)cc4)nn3,5.58758581
10186,HAWFUJ,C28 H20 N8 O5 S4,CCOC(=O)c1cc2Sc3nnc(Sc4ccc(Oc5ccc(Sc6nnc(Sc1cc2C(=O)OCC)nn6)cc5)cc4)nn3,5.52146214
10187,HAWTUV,C23 H18 F1 N3 O1,CC1=NN(C(=O)C1=C(Nc1ccc(F)cc1)c1ccccc1)c1ccccc1,5.75629639
10188,HAWVUW,C19 H18 N2 O9,COC(=O)C1=CC2=C(N1)c1c(cc(nc1C(=O)C2(OC)OC)C(=O)OC)C(=O)OC,5.8330325
10189,HAWWAD,C20 H18 N2 O9,COC(=O)C1=CC2=C(N1)c1c(cc(nc1C(O)(CC(C)=O)C2=O)C(=O)OC)C(=O)OC,5.90623112
10190,HAXFET,C22 H25 Cl1 N4 O2,COc1ccc(cc1)C(NCCN(C)C)=C1C(=NN(C1=O)c1ccc(Cl)cc1)C,6.14677977
10192,HAXHUJ,C5 H12 N2 O3 S1,O=S(=O)([O-])CN1CC[NH2+]CC1,5.6390153199999995
10193,HAXKEW,C8 H11 N1 O2 S1,[NH3+]CC(CC(=O)[O-])C1=CC=CS1,5.08172615
10194,HAXKIA,C8 H10 Br1 N1 O2 S1,[NH3+]CC(CC(=O)[O-])C1=CC(=CS1)Br,5.06675989
10195,HAXMAX,C32 H22,c1ccc(cc1)C=Cc1ccc2ccc3c(C=Cc4ccccc4)ccc4ccc1c2c34,4.80607483
10196,HAXNOK,C24 H27 N5,CN(C)c1ccc(cc1)C=Cc1nc(C)nc(C=Cc2ccc(cc2)N(C)C)n1,5.26621934
10197,HAXNUQ,C15 H18 N4,CN(C)c1ccc(cc1)C=Cc1nc(C)nc(C)n1,5.49697189
10198,HAXPAY,C30 H35 N5,Cc1nc(C=Cc2ccc(cc2)N2CCCCC2)nc(C=Cc2ccc(cc2)N2CCCCC2)n1,5.47112107
10199,HAXPED,C15 H11 N3 O1,O=C1NN=C(N=C1c1ccccc1)c1ccccc1,5.90759169
10200,HAXPOM,C16 H16 N2 O2,CCN1C(=O)c2cccc3c(ccc(C1=O)c23)N(C)C,5.54132645
10201,HAXQEE,C16 H9 Br1 N2 O2,Brc1ccc2C(=O)C(Nc2c1)=C1Nc2ccccc2C1=O,4.4906948799999995
10202,HAXRII,C16 H14 N2 O2,CCOc1ccc(cc1)N=C1C(=O)Nc2ccccc12,5.727996559999999
10203,HAXROO01,C9 H11 N3 O1 S1,CNC(=S)NN=Cc1ccccc1O,5.92391853
10204,HAXSAB,C10 H13 N3 O2 S1,CNC(=S)NN=Cc1cccc(OC)c1O,5.93072137
10205,HAXWEK,C12 H13 N5 O2,COc1nc(N)nc(Nc2ccc(C)cc2)c1N=O,6.087458949999999
10206,HAXWIO,C19 H28 N6 O3,CCOC(=O)CCNc1nc(N)nc(NC23CC4CC(CC(C4)C2)C3)c1N=O,6.48746631
10207,HAYQUT,C28 H23 N1 O2,CN(C)c1cccc2cccc(C=C(C(=O)c3ccccc3)C(=O)c3ccccc3)c12,5.76527615
10208,HAYROP,C27 H18 F6 S2,CC1=C(SC(=C1)c1ccccc1)C1=C(C2=C(C)C=C(S2)c2ccccc2)C(F)(F)C(F)(F)C1(F)F,5.476835469999999
10209,HAYSEG,C9 H12 N4 O2 S1,COC(=O)NC(=S)Nc1nc(C)cc(C)n1,6.1612018
10210,HAYTIL,C22 H16 O2,COc1cccc(c1)C=C1c2ccccc2C(=O)c2ccccc12,5.72037737
10211,HAYTOQ,C19 H19 N1 O4,C[N+]1(C)C(c2cccc3cccc1c23)[C-]1C(=O)OC(C)(C)OC1=O,5.77371168
10212,HAYVUB,C15 H11 N1 O1,ON=Cc1c2ccccc2cc2ccccc12,5.31601618
10213,HAYWAI,C18 H12 N2 O1,O=C1c2cccc3cccc(C1=NNc1ccccc1)c23,5.249076179999999
10214,HAYZOX,C37 H33 N1,Cc1cc(ccc1C=CC=C(c1ccccc1)c1ccccc1)N(Cc1ccccc1)Cc1ccccc1,5.58513678
10215,HAZGIY,C4 H10 N8,NC(N)=NN=CC=NN=C(N)N,6.16609986
10216,HAZHOG,C8 H6 F3 N1 S1,NC(=S)c1ccc(cc1)C(F)(F)F,6.19820929
10217,HAZKEZ,C19 H14 N2 O2,O=C1N2c3ccccc3C(=O)C3=C2N(CCC3)c2ccccc12,5.91983682
10218,HAZLIF,C38 H30 N2 O2,C1Cc2cccc(c2)N=Nc2cccc(CCOc3c(ccc4c(O1)c(ccc34)c1ccccc1)c1ccccc1)c2,5.55248312
10219,HAZLOL,C26 H20 Br2 N2 O2,Brc1ccc2c3OCCc4cccc(c4)N=Nc4cccc(CCOc1c2ccc3Br)c4,5.88636681
10220,HAZLUR,C28 H28 N2 O8,CCOC(=O)c1cc2OCCOc3cccc(c3)N=Nc3cccc(OCCOc1cc2C(=O)OCC)c3,6.14297017
10221,HAZMAX,C22 H21 O2 P1,CCOC(=O)C=P(c1ccccc1)(c1ccccc1)c1ccccc1,6.04364862
10222,HAZMAY,C30 H32 N2 O8,CCOC(=O)c1cc2OCCCOc3cccc(c3)N=Nc3cccc(OCCCOc1cc2C(=O)OCC)c3,6.04636976
10223,HAZMEC,C24 H24 N2 O4,COc1cc2OCCc3ccccc3N=Nc3ccccc3CCOc1cc2OC,5.34404391
10224,HAZPEG,C36 H23 N1 O2 S2,O=C1C2=CSC=C2C(=O)C1=Cc1ccc(cc1)C1=CC=C(S1)c1ccc(cc1)N(c1ccccc1)c1ccccc1,4.27871818
10225,HAZSUZ,C18 H17 N3 O1,[O-][N+]1=NN(C2=CCC(CC2)c2ccccc2)c2ccccc12,6.08364935
10226,HAZTAG,C12 H8 F1 N3 O1,Fc1ccc(cc1)N1N=[N+]([O-])c2ccccc12,6.09779927
10227,HBMTHZ,C12 H10 N2 S3,S=C(C=C1SN=C2SCCN12)c1ccccc1,5.67384589
10228,HBPIIQ10,C24 H16 N2 O2,Oc1ccccc1C(=O)C1=C(N2C=Cc3ccccc3C2=N1)c1ccccc1,6.07494172
10229,HBZCOR,C42 H18,c1cc2c3cccc4c5cccc6c7cccc8c9cccc%10c%11cccc%12c(c1)c2c1c(c34)c(c56)c(c78)c(c9%10)c1c%11%12,4.93206354
10230,HBZIND01,C11 H7 N1 O1,O=C1C=CC2=CNc3cccc1c23,5.77044632
10231,HCAROT,C40 H58,CC1=C(CC=C(C)C=CC=C(C)C=CC=CC(C)=CC=CC(C)=CCC2=C(C)CCCC2(C)C)C(C)(C)CCC1,4.42892503
10232,HCHDPP,C48 H30 N6 P2,N#CC(C(C#N)=C(C#N)C(C#N)=P(c1ccccc1)(c1ccccc1)c1ccccc1)=C(C#N)C(C#N)=P(c1ccccc1)(c1ccccc1)c1ccccc1,5.168530480000001
10233,HDXMOR,C17 H17 N1 O4,CN1CCC23C4Oc5c(O)ccc(CC1C2(O)C=CC4=O)c35,6.64311543
10234,HEABZQ,C10 H14 N2 O4,OCCNC1=CC(=O)C(=CC1=O)NCCO,5.508672789999999
10235,HEBGAX,C27 H20,CC1Cc2ccc3ccccc3c2C1=C1c2ccccc2c2ccccc12,5.3260844
10236,HEBMOT,C48 H30 N4,N#CC(=Cc1ccc(cc1)C(c1ccccc1)=C(c1ccccc1)C(c1ccccc1)=C(c1ccccc1)c1ccc(cc1)C=C(C#N)C#N)C#N,5.11682885
10237,HEBQAJ,C37 H24 N2 O3,O=C(c1ccc(cc1)N1c2ccccc2Oc2ccccc12)c1ccc(cc1)N1c2ccccc2Oc2ccccc12,5.04471867
10238,HEBRIQ,C43 H29 N3,Cc1ccc(cc1)N(c1ccc(C)cc1)c1ccc2c3ccc(C=C(C#N)C#N)cc3C3(c4ccccc4c4ccccc34)c2c1,4.59464236
10239,HEBROW,C41 H25 N3,N#CC(=Cc1ccc2c3ccc(cc3C3(c4ccccc4c4ccccc34)c2c1)N(c1ccccc1)c1ccccc1)C#N,4.70131099
10240,HEBYUI,C11 H8 N4,N#CN=C1C=CC(=NC#N)C2=C1CCC2,5.14866617
10241,HECBEY,C40 H35 N1 O4 S2,CCCCN1C(=O)c2cccc3c2c(cc(C2=C(C)SC(=C2)c2ccc(OC)cc2)c3C2=C(C)SC(=C2)c2ccc(OC)cc2)C1=O,4.98703054
10242,HECBIC,C30 H24 N2 O2 S3,COc1ccc(cc1)C1=CC(=C(C)S1)C1=C(C2=C(C)SC(=C2)c2ccc(OC)cc2)C2=NSN=C2C=C1,5.078460789999999
10243,HECBOI,C30 H22 N4 O2 S4,COc1ccc(cc1)C1=CC(=C(C)S1)C1=C(C2=C(C)SC(=C2)c2ccc(OC)cc2)C2=NSN=C2C2=NSN=C12,5.17778235
10244,HECDUP,C22 H22 N2 S5,CCCCC1=C(SC(=C1CCCC)C1=CC=C(SC#N)S1)C1=CC=C(SC#N)S1,5.5103054799999995
10245,HECFAX,C42 H44 N2 S8,CCCCC1=C(SC(=C1CCCC)C1=CC=C(S1)C1=CC=C(S1)C1=C(CCCC)C(=C(S1)C1=CC=C(SC#N)S1)CCCC)C1=CC=C(SC#N)S1,4.79002011
10246,HECGUR,C26 H17 P1,c1ccc(cc1)P1c2ccc3ccccc3c2c2c1ccc1ccccc21,5.708404359999999
10247,HECHEC,C15 H14 Br1 N1 O2,CNc1ccc(Br)cc1C(=O)c1ccccc1OC,6.0806561
10248,HECJII,C29 H23 N1 O3 S2,COc1ccc(cc1)C=C(C1=C(Sc2ccccc2)c2ccccc2N1)S(=O)(=O)c1ccccc1,6.03194772
10249,HECLAC,C14 H14 N4 O2,CC1=NOC(=N1)C1=C(NC=NO)c2ccccc2CC1,6.00909016
10250,HECLEG,C19 H15 Cl1 N4 O2,ON=CNC1=C(CCc2ccccc12)C1=NC(=NO1)c1ccc(Cl)cc1,5.901060960000001
10251,HECLIK,C14 H13 N2 P1 S2,Cc1cc(C)[n+]2c(c1)N=C(c1ccccc1)P2(=S)[S-],4.886620519999999
10252,HECMIL,C6 H11 I2 P1 Se1,IP(I)(=[Se])C1CCCCC1,5.512482379999998
10253,HECRAI,C17 H28 N2 O3 S1,COCC1CCCN1NC(CS(=O)(=O)c1ccccc1)C(C)C,6.35004882
10254,HEDCUR,C20 H20 N2 O5,COc1ccc2NC3(OC(C)(C)C(=O)N3OCc3ccccc3)C(=O)c2c1,5.917932019999999
10255,HEDGAB,C35 H41 N3 O4,CCC1=C2NC(=C1C)C=C1CC(C(=O)OC)(C(=O)OC)C(=C1)C=C1NC(=CC3=NC(=C2)C(=C3CC)CC)C(=C1C)CC,4.141844919999999
10256,HEDHIK,C14 H10 N2 O3,CC(=O)C=CN1OC(=O)c2cc3ccccc3nc12,5.65534216
10257,HEDHOQ,C25 H32 N2 O9,CCOC(=O)C=COC=C(C(=O)OCC)C(=CNc1nc(C)cc(C)c1C(=O)OCC)C(=O)OCC,6.13235774
10258,HEDHUW,C27 H30 N2 O9,CCOC(=O)C=COC=C(C(=O)OCC)C(=CNc1nc2ccccc2cc1C(=O)OCC)C(=O)OCC,5.64173646
10259,HEDJAB,C43 H37 N5,Cc1ccc(cc1)N=C1C=C2N(c3ccc(C)cc3)C3=CC(=Nc4ccc(C)cc4)N(c4ccc(C)cc4)C3=C2N1c1ccc(C)cc1,4.23844533
10260,HEFBOJ,C36 H28 N4 S4,CN1c2ccccc2C2=C1C1=C(SSC3=C(N(C)c4ccccc34)C3=C(SS2)c2ccccc2N3C)c2ccccc2N1C,5.58867426
10261,HEFGOR,C25 H23 Cl1 O3,CC1CC2C(CC(C(C1)C2=O)c1ccc(Cl)cc1)C1C(=O)c2ccccc2C1=O,6.5601207100000005
10262,HEFGUX,C24 H19 Cl1 O3,Clc1ccc(C=CC2C3CCC(CC3=O)C32C(=O)c2ccccc2C3=O)cc1,5.76473192
10263,HEFTOD,C19 H12 N2 O2,COc1ccc2N=C3N(C(=O)c4cccc5cccc3c45)c2c1,5.14404023
10264,HEFTUJ,C19 H12 N2 O2,COc1ccc2N3C(=O)c4cccc5cccc(C3=Nc2c1)c45,5.42186847
10265,HEFXEW,C14 H13 N3 S2,NC(=S)N1N=C(CC1c1ccccc1)C1=CC=CS1,5.7209216
10266,HEFYUO,C16 H11 N3,N1C(=Cc2nc3ccccc3nc12)c1ccccc1,5.860788110000001
10267,HEGBIH,C15 H11 N1 O3,Cc1ccc(cc1)C1=NC(=CC2=CC=CO2)C(=O)O1,5.32363537
10268,HEGDON,C21 H24 N4 O6,CCN1C(=O)C(=NNc2ccc(cc2)C(=O)OCCOCCOC)C(=C(C#N)C1=O)C,5.26730781
10269,HEGFOP,C14 H25 N3 O2,CCCCCCCCCCN1N=C(C)C(=NO)C1=O,6.130997160000001
10270,HEGGEH,C14 H14 O6,CCOC(=O)C=C1OC(=O)c2cc(OC)c(OC)cc12,6.0869147199999984
10271,HEGGUW,C38 H32,CC(=Cc1cc2c(C=C(CC2(C)c2ccccc2)c2ccccc2)cc1c1ccccc1)c1ccccc1,5.62921923
10272,HEGHEI,C31 H24 N2,c1ccc(cc1)N(c1ccccc1)c1ccc(C=Cc2cccc(c2)c2ccccn2)cc1,5.64581817
10274,HEGJOU,C21 H22 S3,CCCCCC#CC1=C(SC(=C1)C1=CC=C(C)S1)C1=CC=C(C)S1,5.48527099
10275,HEGKAF,C36 H30 O4,COC(=O)CCC(=O)OC(Cc1c2ccccc2cc2ccccc12)Cc1c2ccccc2cc2ccccc12,5.33832952
10276,HEGKIQ,C31 H22 O1,Cc1ccccc1C1=C2c3ccccc3c3ccccc3C2=C(C1=O)c1ccccc1C,4.6300171699999995
10277,HEGMIR,C13 H12 N4 O1 S2,CN(C)C=C1SC(NC1=O)=NC1=Nc2ccccc2S1,5.96473561