,ID,formula,smiles,HOMO_LUMO_gap
10970,HOMZOB,C18 H10 Br2 S4,Brc1ccc(cc1)C1=CSC(S1)=C1SC=C(S1)c1ccc(Br)cc1,5.15574112
10971,HONCAQ,C21 H25 N3 O2,COc1ccc(NN=C(C(=O)C(C)(C)C)C(=NC)c2ccccc2)cc1,6.12337798
10972,HONDEW,C8 H5 Cl1 F3 N1 O1,Nc1ccc(Cl)cc1C(=O)C(F)(F)F,5.926911779999999
10973,HONFEW,C19 H18 N2 O2,COC(=O)C(=Cc1ccccc1c1ccccc1N(C)C)C#N,5.727724439999999
10974,HONFIA,C18 H15 N3,C[N+]1(C)C(c2ccccc2c2ccccc12)[C-](C#N)C#N,4.8411775100000005
10975,HONGIC,C12 H11 N1 O2,CCNC1=CC(=O)c2ccccc2C1=O,5.588130039999999
10976,HONGOI,C16 H19 N1 O2,CCCCCCNC1=CC(=O)c2ccccc2C1=O,5.5696262999999995
10977,HONHEZ,C31 H29 Cl2 N3 O3,COc1ccc2NC(=O)C3(N(C)CC(c4ccc(Cl)cc4)C43CN(C)CC(=Cc3ccc(Cl)cc3)C4=O)c2c1,5.61071548
10978,HONHID,C32 H31 Cl2 N3 O3,CCN1CC(=Cc2ccc(Cl)cc2)C(=O)C2(C1)C(CN(C)C12C(=O)Nc2ccc(OC)cc12)c1ccc(Cl)cc1,5.62513751
10979,HONHUP,C16 H8 Cl1 N1 O2,Clc1ccc2OC3=CC(=O)c4ccccc4C3=Nc2c1,5.14104698
10980,HONJAX,C17 H16 N2 O1,CN1C(=O)C(=Nc2ccc(C)c(C)c2)c2ccccc12,5.83575364
10981,HONJIF,C16 H10 Cl1 N1 O3,Oc1ccc(Cl)cc1NC1=CC(=O)c2ccccc2C1=O,5.48989693
10982,HONKAZ,C36 H28 N4 O2,CC1(C)c2ccccc2N(c2ccc(cc2)c2nc(Oc3ccccc3)nc(Oc3ccccc3)n2)c2ccccc12,5.197102429999999
10983,HONKUQ,C12 H12 O8 S4,COC(=O)C1=C(SSC(=C(SS1)C(=O)OC)C(=O)OC)C(=O)OC,6.31848361
10984,HONMUU,C28 H38 N4,CCc1cccc(CC)c1N=C(C)C(C)=NN=C(C)C(C)=Nc1c(CC)cccc1CC,6.36637564
10985,HONPIL,C17 H16 O4 S9,CCSC1=C(SCC)SC(S1)=C1SC(=S)C(S1)=C1SC(=C(S1)C(=O)OC)C(=O)OC,4.44334707
10986,HONPOR,C26 H12 Br4,BrC1=C(Br)C2=C(Br)c3ccccc3C2=C2c3ccccc3C(=C2c2ccccc12)Br,4.3004872899999995
10987,HONQEI,C39 H29 N1 O6,Cc1ccc(cc1)N(c1ccc(C)cc1)c1ccc(cc1)C(C1=C(O)c2ccccc2OC1=O)C1=C(O)c2ccccc2OC1=O,4.96362875
10988,HONQOT,C33 H28 Br1 N3 O4 S1,CCOC(=O)C1(c2ccccc2)C(=CN=C1c1ccccc1)C(=NNS(=O)(=O)c1ccc(C)cc1)c1ccc(Br)cc1,5.886638929999998
10989,HONREH01,C22 H16 N2,Cc1c2ccccc2nc2ccc3nc4ccccc4c(C)c3c12,5.8205152600000005
10990,HONSIO,C21 H6 O3,O=C1c2ccc3C(=O)c4ccc5C(=O)c6ccc1c1c2c3c4c5c61,5.24581081
10991,HONTIN,C34 H36 N2 O2,CN(C)c1ccc(cc1)C1CC(O)(C(C1c1ccc(cc1)N(C)C)C(=O)c1ccccc1)c1ccccc1,6.17154213
10992,HONWOY,C27 H25 N3 S5,CCCCC(CC)CC1=CC=C(S1)C1=NC2=C(C3=CC=CS3)C3=NSN=C3C(=C2S1)C1=CC=CS1,4.26783363
10993,HONXUG,C30 H25 N3 O4,CC(Cc1ccc(cc1)C(C)=O)C(N1C(=O)c2ccccc2C1=O)C(=O)Nc1cccc2cccnc12,5.80500477
10994,HONYAK,C26 H18 N2 O2,Oc1cccc2C(=Nc3ccccc3)c3c(O)cccc3C(=Nc3ccccc3)c12,5.3181931
10995,HONZAO,C32 H31 N3 O3,CCOc1ccc(cc1)C1=NN(C(C1)c1cccc2ccccc12)c1ccc(cc1)C(=O)N1CCOCC1,5.915483
10996,HONZES,C30 H26 Br1 N3 O2,Brc1ccc(cc1)C1=NN(C(C1)c1cccc2ccccc12)c1ccc(cc1)C(=O)N1CCOCC1,5.76255501
10997,HONZIV,C42 H40 N4 O4,CCCCC(CC)CN1C(=O)c2ccc3c4c(cc5C(=O)N(CC(CC)CCCC)C(=O)c6ccc(c7c(cc(C1=O)c2c37)C#N)c4c56)C#N,3.7823825300000005
10998,HONZIW,C30 H26 Br1 N3 O2,Brc1cccc(c1)C1=NN(C(C1)c1cccc2ccccc12)c1ccc(cc1)C(=O)N1CCOCC1,5.98568837
10999,HONZOC,C32 H31 N3 O2,CCc1ccc(cc1)C1=NN(C(C1)c1ccc2ccccc2c1)c1ccc(cc1)C(=O)N1CCOCC1,5.77670493
11000,HONZUI,C32 H31 N3 O3,CCOc1ccc(cc1)C1=NN(C(C1)c1ccc2ccccc2c1)c1ccc(cc1)C(=O)N1CCOCC1,5.9723548
11001,HOPBAS,C30 H25 Cl2 N3 O2,Clc1ccc(cc1Cl)C1=NN(C(C1)c1ccc2ccccc2c1)c1ccc(cc1)C(=O)N1CCOCC1,5.7761607
11002,HOPBEV,C15 H11 Cl1 O2,Oc1ccccc1C(=O)C=Cc1ccccc1Cl,6.31685093
11003,HOPGAU,C15 H20 O3,CC(CCC=C(C)C)C1=CC(=O)C(=C(O)C1=O)C,4.76879523
11004,HOPGEY,C15 H21 N1 O3,CC(CCC=C(C)C)C1=C(O)C(=O)C(=C(N)C1=O)C,5.35737749
11005,HOPGIC,C15 H21 N1 O3,CC(CCC=C(C)C)C1=C(N)C(=O)C(=C(O)C1=O)C,5.3592822899999994
11006,HOPGIF,C16 H13 F3 N2 O1,Nc1ccc(NC(=CC(=O)C(F)(F)F)c2ccccc2)cc1,5.86541405
11007,HOPGOL,C16 H10 F4 N2,Nc1ccc2nc(cc(c2c1)C(F)(F)F)c1ccc(F)cc1,5.82214794
11008,HOPHEZ,C12 H17 N5 O1,CN(C)C=NC1=C(N=CN1C(C)(C)C)C(=O)C#N,6.0607918
11009,HOPLUW,C14 H20 N6 S2,CN(C)C(=S)NN=CC(=NNC(=S)N(C)C)c1ccccc1,4.93614524
11010,HOPMIK,C11 H11 N3 O1 S1,CNc1ccccc1C1=NC(=CS1)C(N)=O,6.01888625
11011,HOPPEI,C29 H32 O1,CC(C)(C)C1=CC2=CC=C3C=C(C=C4C5=C(C=CC5=O)C(=C1)C2(C)C34C)C(C)(C)C,4.48987853
11012,HOPPIM,C29 H34 O1,CC(C)(C)C1=CC2=CC=C3C=C(C=C4C5=C(CCC5=O)C(=C1)C2(C)C34C)C(C)(C)C,4.2400780199999994
11013,HOPQUZ,C27 H35 N3 O2,CN1CCC2(CC1)OC(=O)c1cccc(N=Nc3cc(cc(c3)C(C)(C)C)C(C)(C)C)c21,5.81425665
11014,HOPRAG,C38 H41 N3 O2,Cc1cccc(C)c1c1cc(cc(c1)c1c(C)cccc1C)N=Nc1cccc2C(=O)OC3(CCN(CC3)C(C)(C)C)c12,5.49751612
11015,HOQBEU,C12 H4 Cl2 N2 S1,ClC1=NSC2=C(Cl)c3ccccc3C2=C1C#N,4.55872334
11016,HOQBIY,C10 H4 Cl2 O1 S2,ClC1(Cl)C2=C(C(=O)SS2)c2ccccc12,6.02351219
11017,HOQBOG,C31 H31 N5,CN(C)c1ccc(cc1)C=Cc1nc(C=Cc2ccccc2)nc(C=Cc2ccc(cc2)N(C)C)n1,5.8795639699999995
11018,HOQCIZ,C13 H7 N1 O2 S5,O=C1SSC2=C1N(Cc1ccccc1)C1=C(SSC1=O)S2,5.66486614
11019,HOQCOF,C6 H1 N1 O2 S5,O=C1SSC2=C1NC1=C(SSC1=O)S2,5.19574187
11020,HOQDIC,C20 H20 N2 O1,[O-][n+]1c(cc2ccccc2c1N1CCCCC1)c1ccccc1,6.11358188
11021,HOQDUO,C32 H34 N2,CN1C=CC(=C=C=C2C=CN(C)C=C2c2c(C)cc(C)cc2C)C(=C1)c1c(C)cc(C)cc1C,3.8920444
11022,HOQFAW,C32 H36 N2,CN1C=CC(=CC=C2C=CN(C)C=C2c2c(C)cc(C)cc2C)C(=C1)c1c(C)cc(C)cc1C,4.49205545
11023,HOQKOP,C26 H24 N2 O4,CCOC(=O)CC1N2C=Cc3ccccc3C2=C(c2ccccc2)C1(CC#N)C(=O)OC,5.967456739999999
11024,HOQNEH,C15 H16 O1 S1,S=C1OC(=Cc2ccccc12)C1CCCCC1,5.99521236
11025,HOQNIL,C16 H12 O1 S1,Cc1ccc(cc1)C1=Cc2ccccc2C(=S)O1,5.79929038
11026,HOQNOR,C16 H12 O2 S1,COc1ccc(cc1)C1=Cc2ccccc2C(=S)O1,5.66785939
11027,HOQNUX,C13 H8 O2 S1,S=C1OC(=Cc2ccccc12)C1=CC=CO1,5.77371168
11028,HOQPAF,C15 H10 O1 S1,S=C1OC(=Cc2ccccc12)c1ccccc1,5.893441779999999
11029,HOQQIO,C28 H25 N3,CN(C)c1ccc(cc1)C1(Nc2ccccc2N=C1c1ccccc1)c1ccccc1,5.98650471
11030,HOQQOU,C34 H34 N4 O6 S2,CN(C)c1cccc2c1cccc2S(=O)(=O)OC1=CC=C2C3CC(CN3S(=O)(=O)c3cccc4c(cccc34)N(C)C)CN2C1=O,6.10487424
11031,HOQRUC,C11 H15 N3 O3 S1,COc1ccc(C=NNC(N)=S)c(OC)c1OC,6.0297708100000005
11032,HOQSAJ,C16 H12 Br1 N3 S1,Brc1cccc(C=NNC2=NC(=CS2)c2ccccc2)c1,5.87276112
11033,HOQZIZ,C27 H27 N1 O3,CC1(C)OC23CCC4(C)C(CCc5cc6c(Nc7ccccc67)cc45)C2=CC(=O)C1O3,6.1767123
11034,HORCAT,C8 H9 N3 O2 S1,NC(=S)NN=Cc1ccc(O)cc1O,5.75330314
11035,HORCOI,C30 H39 B1 N2 O1,CC[B-](CC)(CC)C1=[N+](CCN1CC(=O)c1ccc2ccccc2c1)c1c(C)cc(C)cc1C,6.3320893
11036,HORDEX,C21 H21 N5 O1,COc1ccc(cc1)C1=C2N(N=C(C)C=C2C)C(=N1)NCc1cccnc1,5.50731222
11037,HORFID,C22 H18 N4,CC1=NN2C(=NC(=C2C(=C1)c1ccccc1)c1ccccc1)NCC#C,5.308396999999999
11038,HORFOJ,C17 H16 N4,CC1=NN2C(=NC(=C2C(=C1)C)c1ccccc1)NCC#C,5.5658167
11039,HORFUP,C20 H18 Br1 N5,CC1=NN2C(=NC(=C2C(=C1)C)c1ccc(Br)cc1)NCc1cccnc1,5.43547416
11040,HORGUT,C20 H20 N4,Cc1ccc(cc1)C1=C2N(N=N1)c1ccccc1C2=NC(C)(C)C,5.503774740000001
11041,HORJII,C26 H18 S2,S1C(=Cc2ccc3C=C(Sc3c12)C=Cc1ccccc1)C=Cc1ccccc1,5.0806377
11042,HORKUW,C16 H12 Cl1 N1 O1 S2,CSC1=C(Cl)C(=O)C(=CC2=CC=CS2)N1c1ccccc1,5.215878290000001
11043,HORLAE,C40 H22 N2 O6,O=C1N(C(=O)c2ccc3C(=O)N(C(=O)c4ccc1c2c34)c1ccccc1C(=O)c1ccccc1)c1ccccc1C(=O)c1ccccc1,5.544047589999999
11044,HORMOS,C19 H39 B1 N2 O1,CC[B-](CC)(CC)OC(C[N+]1=CN(C=C1)C(C)(C)C)C(C)(C)C,5.94732032
11045,HORPEK,C23 H19 N3 O3 S1,CN1C(=O)C(Oc2ccccc12)=CC1=CC=C(S1)C=CC(=O)NCc1cccnc1,5.372343750000001
11046,HORXUI,C18 H17 N5 S1,CCCCN1C=C2Sc3nccnc3C2=NC1=Nc1ccccc1,4.74484922
11047,HOSBIC,C25 H24 Cl1 N3,Clc1ccc(cc1)C1=C(C#N)C(=N)N(Cc2ccccc2)C2=C1CCCCCC2,5.81180762
11049,HOSHEF,C22 H17 I1 N2 O4,COC(=O)c1ccc(cc1)c1ccc(cc1N=Nc1ccc(I)cc1)C(=O)OC,5.871944780000001
11050,HOSNEI,C11 H7 N1 O1,O=C1N2C=CC=C2c2ccccc12,6.00364789
11051,HOSPIR,C20 H17 N5 O4,COc1ccc(OC(=O)c2cc(nc(c2)N2C=CC=N2)N2C=CC=N2)cc1OC,6.02405642
11052,HOSQIR,C14 H11 F1 N4 S2,Fc1ccccc1CC1=NNC(=S)N1N=CC1=CC=CS1,5.6128924
11053,HOSQIS,C19 H16 N6 S1,S=C(NN=Cc1ccccn1)Nc1ccc(cc1)N=Nc1ccccc1,5.6493556499999995
11054,HOSQOY,C20 H18 N6 S1,CC(=NNC(=S)Nc1ccc(cc1)N=Nc1ccccc1)c1ccccn1,5.82677388
11055,HOSVUJ,C40 H26 O4,O1C(=CC=C1c1ccc(cc1)C1=CC=C(O1)c1ccccc1)C1=CC=C(O1)c1ccc(cc1)C1=CC=C(O1)c1ccccc1,5.26404244
11056,HOSWAQ,C15 H14 O6,CC1=CC(=O)C2(O)C(=O)c3c(O)cccc3OC2(C)C1O,6.77073683
11057,HOTCAV,C12 H13 Cl1 N2 O3,CCOC(=O)C(=NNc1ccc(Cl)cc1)C(C)=O,5.93371462
11058,HOTFIG,C26 H20 N2 O3,O=C(OC(=O)c1ccccc1Nc1ccccc1)c1ccccc1Nc1ccccc1,6.0493630199999995
11059,HOTFUU,C27 H21 Cl2 N3 O5,CN1C(=O)N(C)C(=O)C2(C(Nc3cc4OCOc4cc3C2c2cccc(Cl)c2)c2cccc(Cl)c2)C1=O,6.08473781
11060,HOTGAB,C27 H23 N3 O5,CN1C(=O)N(C)C(=O)C2(C(Nc3cc4OCOc4cc3C2c2ccccc2)c2ccccc2)C1=O,6.0779349599999986
11061,HOTLAE,C22 H33 N3 S1,CCC1CCCCCCCCCCC21SC(N=N2)=Nc1ccc(C)cc1,6.1905901000000005
11062,HOTMUB,C23 H25 N1 O2,CC(C)N1CCC(C)(C)c2cc(ccc12)C#Cc1ccc(cc1)C(O)=O,5.27792024
11063,HOTNAI,C23 H23 N1 O2,CC(C)N1C=CC(C)(C)c2cc(ccc12)C#Cc1ccc(cc1)C(O)=O,5.29179805
11064,HOTNEK,C25 H20 Cl2 N4 O2 S1,ClCC(=O)Nc1ccccc1SC(C(N1C=NC=N1)C(=O)c1ccc(Cl)cc1)c1ccccc1,6.0575264199999985
11065,HOTNIN,C15 H19 N3 O8,CCOC(=O)C(=O)C(=CNC1=NOC(=C1NC)C(=O)OC)C(=O)OCC,6.0594312200000005
11066,HOTNUB,C19 H12 Br1 N1 O1,Brc1ccc(cc1)C1=C2C=CC=CC2=C2C=CC=CN2C1=O,4.728522379999999
11067,HOTPEM,C19 H16 N8,C(N1C=CN=C1N=Nc1ccccc1)N1C=CN=C1N=Nc1ccccc1,5.8708563300000005
11068,HOTPIQ,C16 H18 N2 O4,COCOc1ccccc1N=Nc1ccccc1OCOC,6.081744560000001
11069,HOTRUG,C15 H17 N1 O4 S1,CCOCCOC1=C(C)SC(=N1)c1ccc(cc1)C(O)=O,5.67112476
11070,HOTSEQ,C8 H7 Cl1 N2 O1 S1,NC(=S)NC(=O)c1ccccc1Cl,6.215624569999999
11071,HOTTAM,C28 H22 F6 N2 S2,CCCCCC1=C(C=C(S1)C=C(C#N)C#N)C1=C(C2=C(CC)Sc3ccccc23)C(F)(F)C(F)(F)C1(F)F,5.61942313
11072,HOTVES,C12 H12 N2 S2,CC(=NN=C(C)C1=CC=CS1)C1=CC=CS1,5.94459918
11073,HOTVUJ,C29 H21 Br1 N2 O2 S1,Brc1ccc(cc1)C(C=Cc1c2ccccc2cc2ccccc12)=NNS(=O)(=O)c1ccccc1,5.2966961
11074,HOTXOE,C21 H20 O3,COc1ccccc1C=C1CCC(=Cc2ccccc2OC)C1=O,5.72772444
11075,HOVFAC,C22 H14 O4,Oc1cc2ccccc2c(c1C=O)c1c(C=O)c(O)cc2ccccc12,5.97698072
11076,HOVFEG,C22 H10 F4 O4,Oc1cc2c(F)ccc(F)c2c(c1C=O)c1c(C=O)c(O)cc2c(F)ccc(F)c12,5.8994282799999995
11077,HOVFIK,C23 H16 O5,COc1ccc2cc(O)c(C=O)c(c2c1)c1c(C=O)c(O)cc2ccccc12,5.687179479999999
11078,HOVFUW,C19 H17 N3 O2,COc1cc(ccc1O)C=CC1=NNC(=C1)C=Cc1ccncc1,5.56826572
11079,HOVGUU,C16 H12 O1 S1,CC(=O)C=CC1=C2C=CC=CC=C2C2=C1C=CS2,4.5701521199999995
11080,HOVHOS,C30 H21 N1 O3,CCOC(=O)C=C(c1ccccc1)C1=C2C(=Nc3ccccc23)Oc2ccc3ccccc3c12,5.33696895
11082,HOVJIL,C23 H16 O2,O=C1c2ccccc2OC(=C1C=Cc1ccccc1)c1ccccc1,5.93262617
11083,HOVJIO,C13 H10 N2 O2,OC(=O)c1ccc(cc1)N=Nc1ccccc1,6.0899079700000005
11084,HOVKOS,C10 H12 O2 S4,CC1(C)SSC(C1=O)=C1SSC(C)(C)C1=O,4.951927850000001
11085,HOVLAF,C22 H20 N2 O2,CCN1C(=CC=C2N(CC)c3ccccc3C2=O)C(=O)c2ccccc12,4.0964019
11086,HOVPOY,C13 H10 N2 S3,S=C1N(Cc2ccccc2)SN=C1C1=CC=CS1,5.5603744200000005
11087,HOVXIB,C20 H19 N1 O4,CCOC(=O)C1CC(=O)C(=C(O)c2ccccc2)c2ccccc2N1,6.09099643
11088,HOVXIC,C26 H25 N1 O2,CCN(CC)c1ccc(cc1)C=C1C(Oc2ccccc2C1=O)c1ccccc1,5.415609849999999
11089,HOVXOI,C20 H21 N1 O2,CCN(CC)c1ccc(cc1)C=C1COc2ccccc2C1=O,5.50159783
11090,HOVYIC,C37 H22 F4,Fc1ccc(cc1)C1=C2C=CC(=CC2C(c2ccc(F)cc2)(c2ccc(F)cc2)c2ccc3Cc4ccc1c2c34)F,5.34431602
11091,HOWCIH,C35 H27 N3 O3 S1,CCOC(=O)C1CN(Cc2ccccc2)C2(c3ccccc3c3nc4ccccc4nc23)C21Sc1ccccc1C2=O,6.07330903
11092,HOWCUT,C12 H11 N1 O3,COC(=O)C=C1C(=O)N(C)c2ccccc12,5.7603781000000005
11093,HOWDII,C17 H14 Cl1 N3 O1 S1,ClC1=C(COc2ccccc12)C=NNC(=S)Nc1ccccc1,5.31302293
11094,HOWFUV,C22 H12 O2 S3,O=C(C1=CC2=C(S1)C1=C(S2)C=C(S1)C(=O)c1ccccc1)c1ccccc1,5.65561427
11095,HOWGAC,C22 H2 F10 O2 S3,Fc1c(F)c(F)c(c(F)c1F)C(=O)C1=CC2=C(S1)C1=C(S2)C=C(S1)C(=O)c1c(F)c(F)c(F)c(F)c1F,5.52037368
11096,HOWGEG,C22 H7 F5 O2 S3,Fc1c(F)c(F)c(c(F)c1F)C(=O)C1=CC2=C(S1)C1=C(S2)C=C(S1)C(=O)c1ccccc1,5.48091718
11097,HOWJAH,C7 H16 N2 O2,CC(C)(C)[NH2+]CCNC(=O)[O-],5.427854969999999
11098,HOWJOU,C28 H22 Br1 N1,Cc1ccc(cc1)N(c1ccc(C)cc1)c1c2ccccc2c(Br)c2ccccc12,4.927437599999999
11099,HOWLEL,C13 H16 F3 N3 O4,CCOC(=O)C(=CN(C)C)C(=C1NC(=O)N(C)C1=O)C(F)(F)F,5.9190204699999995
11100,HOWMAK,C8 H4 F4 N2 S1,FC(F)C1=CC(=C(C#N)C(=S)N1)C(F)F,5.24091276
11101,HOWNAK,C23 H18 N4 O1 S1,COc1ccc(cc1)C1=NN=C2SCC(=NN12)c1ccc(cc1)c1ccccc1,5.457243269999999
11102,HOWQOC,C30 H22 N2 S1,CN1c2ccccc2c2cc(ccc12)C1=CC=C(S1)c1ccc2N(C)c3ccccc3c2c1,5.8017394100000015
11103,HOWTAR,C48 H59 N3 O4,CCCCCCCCN1C(=O)c2ccc3N(CCCCCCCC)c4ccc5C(=O)N(CCCCCCCC)C(=O)c6ccc(c7ccc(C1=O)c2c37)c4c56,4.87410329
11104,HOWTEV,C32 H19 N3 O4,CN1C(=O)c2ccc3N(c4ccccc4)c4ccc5C(=O)N(C)C(=O)c6ccc(c7ccc(C1=O)c2c37)c4c56,4.88145036
11105,HOWYAV,C27 H21 N1 O2,CCOC(=O)N1c2cccc3cccc(c23)C(=C1c1ccccc1)c1ccccc1,5.69098907
11106,HOXDUV,C29 H25 N1 O1,CN1c2ccccc2C(C(CC(=O)c2ccccc2)c2ccccc2)c2ccccc12,6.10052041
11107,HOXGAE,C36 H34,CC(C)(C)c1ccc(cc1)C1=C2c3ccccc3C(=C2c2ccccc12)c1ccc(cc1)C(C)(C)C,5.40145993
11108,HOXGEI,C28 H16 F2,Fc1ccc(cc1)C1=C2c3ccccc3C(=C2c2ccccc12)c1ccc(F)cc1,5.0196842
11109,HOXGIM,C28 H34,CCCCCCC1=C2c3ccccc3C(=C2c2ccccc12)CCCCCC,5.47493068
11110,HOXHUZ,C31 H24 Cl6 O8,COc1cc(Cl)c(OC2=C(Oc3c(Cl)cc(OC(C)C)cc3Cl)C(=O)C(=CC2=O)Oc2c(Cl)cc(OC(C)C)cc2Cl)c(Cl)c1,5.38758212
11111,HOXLOX,C22 H26 B1 F2 N3 O1,CCCCCC[NH+]=C1C=CC2=C(c3ccc(OC)cc3)C3=CC=CN3[B-](F)(F)N12,4.68335148
11112,HOXLUD,C22 H25 B1 F2 I1 N3 O1,CCCCCC[NH+]=C1C=CC2=C(c3ccc(OC)cc3)C3=CC(=CN3[B-](F)(F)N12)I,4.62539123
11113,HOXNEP01,C20 H10 N2 S4,N#CC(C1=CC=C(S1)C1=CC=CS1)=C(C#N)C1=CC=C(S1)C1=CC=CS1,4.40742804
11116,HOXPUI,C22 H19 N3 S1,CN(C)c1ccc2N=C(Sc2c1)c1ccc(cc1)C=Nc1ccccc1,5.06267818
11117,HOXQAP,C24 H18 S1,S1C=CC=C1c1ccc(cc1)C=C(c1ccccc1)c1ccccc1,5.70622744
11118,HOXQET,C24 H18 S1,S1C=CC(=C1)c1ccc(cc1)C=C(c1ccccc1)c1ccccc1,5.7396974499999995
11119,HOXVIC,C23 H19 N3 S1,CC(=NNC(=S)Nc1cccc2ccccc12)c1ccc2ccccc2c1,5.76690884
11120,HOYGIL,C16 H16 N2 O2,CC1(C)CC(=O)C=C(C1)NC(=O)c1ccc(cc1)C#N,6.650190390000001
11122,HOYMEN,C32 H24 N4 O2 S5,C1CCC2=C(C1)SC(=C2)C1=CC=C(S1)C1=NN=C(O1)C1=CC=C(S1)C1=NN=C(O1)C1=CC=C(S1)C1=CC2=C(CCCC2)S1,5.137237389999999
11123,HOYVEX,C23 H21 N5 O9,COC(=O)c1ccc(C(=O)OC)c(NN=C(C(C)=O)C(=O)Nc2cc3NC(=O)C(=O)Nc3cc2OC)c1,4.35926388
11124,HOYWAU,C18 H15 N5 O5,CC(=O)C(=NNc1ccccc1C(O)=O)C(=O)Nc1ccc2NC(=O)Nc2c1,5.222681130000001
11125,HOYWEA,C34 H24 F4 N6,Fc1ccc(CN(Cc2ccc(F)cc2)c2nc(C#N)c(nc2C#N)N(Cc2ccc(F)cc2)Cc2ccc(F)cc2)cc1,5.56554459
11126,HOYWEX,C17 H13 F3 O5 S1,COc1cccc2cc3cccc(OC)c3c(OS(=O)(=O)C(F)(F)F)c12,5.318465209999999
11127,HOYWEY,C18 H14 F3 N5 O3,CC(=O)C(=NNc1ccccc1C(F)(F)F)C(=O)Nc1ccc2NC(=O)Nc2c1,5.1807756000000005
11128,HOYWIB,C14 H7 Br3,Brc1cccc2cc3cccc(Br)c3c(Br)c12,5.10812121
11129,HOYWIC,C18 H17 N5 O4,COc1ccccc1NN=C(C(C)=O)C(=O)Nc1ccc2NC(=O)Nc2c1,5.41697042
11130,HOYWIE,C34 H24 I4 N6,Ic1ccc(CN(Cc2ccc(I)cc2)c2nc(C#N)c(nc2C#N)N(Cc2ccc(I)cc2)Cc2ccc(I)cc2)cc1,5.07519542
11131,HOYWOH01,C17 H13 N1 O2,COc1cccc2cc3cccc(OC)c3c(C#N)c12,5.19356495
11132,HOYXUR,C26 H14 O7,Oc1ccccc1C(=O)C1=C(C(=O)c2ccccc2)C2=C(OC1=O)c1ccccc1OC2=O,5.978885530000001
11133,HOYYAW,C40 H50 O4,CC(=CC=CC=C(C)C=CC=C(C)C#CC1=C(C)C(=O)C(O)CC1(C)C)C=CC=C(C)C=CC1=C(C)C(=O)C(O)CC1(C)C,3.9606170900000004
11134,HOYYAY,C24 H12 O7 S1,Oc1ccccc1C(=O)C1=C(C(=O)C2=CSC=C2)C2=C(OC1=O)c1ccccc1OC2=O,6.088819520000001
11135,HOYYEA,C40 H48 O4,CC(=CC=CC=C(C)C=CC=C(C)C#CC1=C(C)C(=O)C(O)CC1(C)C)C=CC=C(C)C#CC1=C(C)C(=O)C(O)CC1(C)C,3.97476701
11136,HOZDAC,C16 H16 Br1 N1,CN(C)c1ccc(C=Cc2ccc(Br)cc2)cc1,5.9350752
11137,HOZDIK,C18 H12 N2 O1,[O-]c1ccc2ccccc2c1C=[NH+]c1cccc(c1)C#N,5.29234228
11138,HOZGEK,C18 H13 Cl1 O1,Cc1ccc(cc1)C#CC=CC(=O)c1ccc(Cl)cc1,5.860516
11139,HOZNER,C32 H22 Br2 N2 O2,Brc1ccc(cc1)C1=C2C(=O)N(Cc3ccccc3)C(=C2C(=O)N1Cc1ccccc1)c1ccc(Br)cc1,4.3108276199999995
11140,HOZQAQ,C20 H14 N2,N#Cc1ccccc1C=CC=CC=Cc1ccccc1C#N,5.01886786
11141,HOZQEU,C20 H14 N2,N#Cc1cccc(C=CC=CC=Cc2cccc(c2)C#N)c1,5.29234228
11142,HOZQIY,C20 H14 N2,N#Cc1ccc(C=CC=CC=Cc2ccc(cc2)C#N)cc1,5.0795492499999995
11143,HOZRIA,C31 H32 N4 O2,CCCCCCCCN1C(=O)N(C)C2=C(N(C)C(=N2)c2ccc3ccc4cccc5ccc2c3c45)C1=O,5.52744865
11145,HOZSUK,C12 H10 S10,C1CSC(S1)C1SC2=C(S1)SC(S2)=C1SC2=C(SCCS2)S1,5.94514341
11146,HOZXEC,C22 H30 N4,CC(C)(C)CN1CCN(CC(C)(C)C)C1=C1C=CC(C=C1)=C(C#N)C#N,4.4621229200000005
11147,HOZXIG,C16 H16 N4,N#CC(C#N)=C1C=CC(C=C1)=C1NC2CCCCC2N1,4.36851576
11148,HOZYON,C18 H15 N1 O1,CC(=O)N(c1ccccc1)C1=CC=C2C=CC=C2C=C1,5.18159194
11149,HOZYUT,C22 H17 N1 O1,CC(=O)N(C1=CC=C2C=CC=C2C=C1)C1=CC2=CC=CC=CC2=C1,4.84906881
11150,HOZZAA,C19 H17 N1 O2,COc1ccc(cc1)N(C(C)=O)C1=CC=C2C=CC=C2C=C1,5.21342926
11151,HOZZEE,C18 H11 F4 N1 O1,CC(=O)N(C1=CC=C2C=CC=C2C=C1)c1cc(F)c(F)c(F)c1F,5.12580861
11152,HOZZOO,C26 H19 O1 P1,O=P(c1ccccc1)(c1ccccc1)c1c2ccccc2cc2ccccc12,5.3698947299999995
11153,HPCBDP10,C37 H30 P2,c1ccc(cc1)P(=C=P(c1ccccc1)(c1ccccc1)c1ccccc1)(c1ccccc1)c1ccccc1,5.921197390000001
11154,HPHAUR10,C10 H8 N4 O3,Oc1ccc(cc1)N=NC1=CC(=O)NC(=O)N1,5.65779118
11155,HPHAZL,C30 H24,C1=CC=C2C(C=C1)C(c1ccccc1)C1=C2C(C2C=CC=CC=C12)c1ccccc1,5.4145214
11156,HPRDZN,C14 H15 Br1 N6 O1,CN1CCC2=NN(C)C(=O)C(=NNc3ccc(Br)cc3)C2=N1,5.10676063
11157,HPTPOL,C29 H21 N1 O2,Oc1ccc(cc1)[n+]1c(cc(c2ccccc2)c([O-])c1c1ccccc1)c1ccccc1,5.08335885
11158,HPXPZH,C19 H22 N2 O3,COc1ccccc1N=NC1(CCCCC1c1ccccc1)OO,6.4439281
11159,HQUINO10,C9 H7 N1 O2,Oc1cccc2ccc[n+]([O-])c12,5.775616469999999
11160,HRBMCN,C30 H42 N2 O9,COC1CC(C)C(OC)C2=CC(=O)C=C(NC(=O)C(=CC=CC(OC)C(OC(N)=O)C(=CC(C)C1OC)C)C)C2=O,5.41969156
11161,HRETGL,C20 H26 O2,CC1=C(C=CC(C)=CC=C2OC(=O)C=C2C)C(C)(C)CCC1,5.01043233
11162,HTHIMP10,C13 H11 N1 O3 S2,COc1ccc(cc1)N1C(=O)C2=C(SCCS2)C1=O,5.78078664
11163,HTMDEC,C22 H24 N4,CC1=CC(=Nc2ccccc2NC(=CC(=Nc2ccccc2N1)C)C)C,5.4224127
11164,HTPSTP,C20 H16 O2 S2,O=C1c2ccccc2CSC21CCC1=C(O2)c2ccccc2CS1,5.827862339999999
11165,HTRYPT10,C11 H12 N2 O3,[NH3+]C(CC1=CNc2ccc(O)cc12)C(=O)[O-],7.1579548399999995
11166,HUBBAK,C34 H23 O1 P1,O=P(c1ccccc1)(c1c2ccccc2cc2ccccc12)c1c2ccccc2cc2ccccc12,5.2800971599999995
11167,HUBBEO,C40 H28 O2 P2,O=P(c1ccccc1)(c1c2ccccc2cc2ccccc12)P(=O)(c1ccccc1)c1c2ccccc2cc2ccccc12,5.074651200000002
11168,HUBBIS,C32 H23 O1 P1,O=P(c1ccccc1)(c1ccccc1)c1ccc(cc1)c1c2ccccc2cc2ccccc12,5.4441818
11169,HUBHUI,C26 H14 O4 S2,Oc1ccc(cc1C=O)C#CC1=C(SC=C1)C1=C(C=CS1)C#Cc1ccc(O)c(C=O)c1,5.471121079999999
11170,HUBLOI,C23 H19 Cl1 N2 O5,COc1ccc(c(OC)c1OC)C1=NC(=C2N1C(=O)C=C(C)C2=O)c1ccc(Cl)cc1,5.035194690000001
11171,HUBTON,C16 H14 N4,Nc1ccccc1c1cnc(cn1)c1ccccc1N,5.65996809
11172,HUBTUT,C26 H30 N4 O4,CC(C)(C)OC(=O)Nc1ccccc1c1cnc(cn1)c1ccccc1NC(=O)OC(C)(C)C,5.9397011299999996
11173,HUBVAB,C20 H12 F6 N4 O2,FC(F)(F)C(=O)Nc1ccccc1c1cnc(cn1)c1ccccc1NC(=O)C(F)(F)F,5.887727379999999
11174,HUBVUV,C16 H12 F8 P2 S2,CP(C)(=S)c1c(F)c(F)c(c(F)c1F)c1c(F)c(F)c(c(F)c1F)P(C)(C)=S,5.76065021
11175,HUBWOT,C36 H27 N1 O3 S1,Cc1ccc(cc1)S(=O)(=O)N1CC2=C(C(C1=O)c1ccccc1)c1c3ccccc3ccc1C2=Cc1ccccc1,5.52037369
11176,HUBZIO,C16 H12 O6,COC(=O)C12Oc3cc(C)cc(O)c3C(=O)C1=CC=CC2=O,5.676839149999999
11177,HUCDOA,C14 H11 Cl1 N4 O1 S1,CN(C)c1ccc(cc1)N=NC1=C(C#N)C(=C(S1)C=O)Cl,4.51872261
11178,HUCGIX,C15 H14 N2 O2,COC(=O)c1ccc(cc1)C=NNc1ccccc1,5.76527615
11179,HUCHUK,C18 H16 N2 O2,CN(C)c1ccc(cc1)C=Nc1ccc2OC(=O)C=Cc2c1,5.74214647
11180,HUCMID,C20 H22 N4 O2 S1,CC(=O)C(SC(=NNc1ccccc1C)C(C)=O)=NNc1ccccc1C,5.89262543
11181,HUCQEC,C21 H18 N2 O4,Cc1ccc(N=Cc2cccc(O)c2O)c([NH+]=Cc2cccc(O)c2[O-])c1,5.01152078
11182,HUCRUT,C21 H23 F1 N4 S1,CC(C)Cc1ccc(cc1)C(C)C1=NNC(=S)N1N=Cc1ccc(F)cc1,5.997389259999999
11183,HUCSIJ,C33 H21 N1,c1ccc2c(c1)cc1ccccc1c2c1cccc(n1)c1c2ccccc2cc2ccccc12,5.51765254
11184,HUCTIJ,C13 H11 Br1 O2,Brc1ccc2OC3CCCC(=O)C3=Cc2c1,6.09126854
11185,HUCVIM,C27 H27 N3 O1 S1,CCCCN(CCCC)C1=CC=C(S1)C=CC=C1C(=O)c2ccccc2C1=C(C#N)C#N,3.97531124
11186,HUCVOS,C29 H33 N3 O2 S1,CCCCN(CCCC)C1=CC=C(S1)C=CC=C1C(=C(C#N)C(=O)N(Cc2ccccc2)C1=O)C,4.03708108
11187,HUCVUY,C27 H31 N3 O2 S1,CCCCN(CCCC)C1=CC=C(S1)C=C1C(=C(C#N)C(=O)N(Cc2ccccc2)C1=O)C,4.57015212
11188,HUCYAG,C21 H23 N3 O1,CCC(C)NC(c1ccccc1)=C1C(=NN(C1=O)c1ccccc1)C,5.89915617
11189,HUCYAI,C19 H17 N1 O3,COc1cc2cc(N)c3c(OCc4ccccc34)c2cc1OC,5.90759169
11190,HUCYIO,C18 H10 O4,O=C1OC(=CC=C2OC(=O)c3ccccc23)c2ccccc12,5.13995852
11191,HUCYOU,C12 H6 Br2 S3,BrC1=CC=C(S1)C1=CC=C(S1)C1=CC=C(Br)S1,5.31220659
11192,HUCZUB,C11 H12 Cl1 N3 O2,CCCCOC(=O)C(C#N)=C1NC=CN=C1Cl,5.48254986
11193,HUDCOZ01,C21 H14 O1 S1,O=C(C=Cc1c2ccccc2cc2ccccc12)C1=CC=CS1,5.096148189999999
11194,HUDDAN,C28 H26 N2 O3 S1,CC(C)CC(N1C(=O)c2ccccc2C1=O)C(=O)N1C(CSc2ccccc12)c1ccccc1,5.98704893
11195,HUDFUI,C30 H30 N2 O6,CC(=O)C1(CCCCC1)N1C(=O)c2ccc3C(=O)N(C(=O)c4ccc(C1=O)c2c34)C1(CCCCC1)C(C)=O,5.53370726
11196,HUDGAR,C23 H17 N1 O2,Cc1cc(C)c(N2C(=O)c3cccc4c(ccc(C2=O)c34)C#C)c(C)c1,5.78160298
11197,HUDJEY,C24 H18 O3,COc1ccc(cc1)C1=CC(=C(OC1=O)c1ccccc1)c1ccccc1,5.87575437