,ID,formula,smiles,HOMO_LUMO_gap
4441,DANZAU,C27 H17 Br1 O2 S1,CCCC1=CC(=O)c2ccc3ccc4Sc5ccc6ccc(Br)cc6c5c4c3c2C1=O,4.993833390000001
4442,DANZEA,C16 H17 N1 O6 S1,COc1cc(cc(OC)c1OC)C=C1SC(=O)N(CC(C)=O)C1=O,5.8172499
4443,DANZEY,C30 H15 Br1 O2 S1,Brc1ccc2ccc3Sc4ccc5ccc6C(=O)C=C(C(=O)c6c5c4c3c2c1)c1ccccc1,4.91628094
4444,DANZUO,C28 H20 O3,CCC1=C(CC)C(=O)c2c(ccc3ccc4Oc5ccc6ccccc6c5c4c23)C1=O,4.75029149
4445,DAPBAY,C27 H18 O3,CCCC1=CC(=O)c2ccc3ccc4Oc5ccc6ccccc6c5c4c3c2C1=O,4.72688969
4446,DAPBOM,C36 H28 O5,CCC1=C(CC)C(=O)c2c(ccc3ccc4Oc5ccc6ccc7C(=O)C(=C(CC)C(=O)c7c6c5c4c23)CC)C1=O,4.63110562
4447,DAPCAB,C16 H16 N2 O3 S1,COc1ccc(NC(=S)NC(=O)c2ccccc2)cc1OC,5.66785939
4448,DAPCAZ,C15 H16 O4,CC1CC(=O)C(=C2C=C3OC(=O)C(=C3CC12C)C)O,5.595204990000001
4449,DAPCEF,C11 H14 N2 O2 S1,CC(O)CNC(=S)NC(=O)c1ccccc1,6.27494539
4450,DAPDED,C20 H22 O4,COC(=O)C1=CC=C(C)C2=C(C)C=C(C)C=C(C)C2=C1C(=O)OC,6.05344471
4451,DAPDIH,C20 H22 O4,COC(=O)C1=C(C(=O)OC)C2=C(C)C=C(C)C=C(C)C2=C(C)C=C1,5.92174161
4452,DAPFIJ,C23 H20 N4 O1,CCOC1=CC2=C(N=NC3=C(C(=NN23)C)c2ccccc2)C2=CC=CC=C1C2,5.252069430000001
4453,DAPJAI,C17 H17 N3 O1,CCCCCCN1C(=O)C(=C(C#N)C#N)c2ccccc12,5.18812267
4454,DAPKIR,C8 H12 N2 S2,CSC1=NC(=S)C2(CCCC2)N1,6.075485939999999
4455,DAPMEP,C13 H8 F5 N1 O1 S1,FS(F)(F)(F)(F)C1=CC2=NOC(=C2C=C1)c1ccccc1,5.7818751
4456,DAPMIR,C28 H22 N4 O1,O=Cc1ccccc1NC1N2C3N(C(Nc4ccccc34)c3ccccc23)c2ccccc12,6.07983976
4457,DAPNAM,C19 H15 N3 O1 S1,COc1ccc2ccccc2c1C=NNC1=Nc2ccccc2S1,5.60064727
4458,DAPNEQ,C19 H15 N3 O1 S1,COc1ccc(C=NNC2=Nc3ccccc3S2)c2ccccc12,5.76119444
4459,DAPNIU,C19 H15 N3 O1 S1,COc1ccc2cc(ccc2c1)C=NNC1=Nc2ccccc2S1,5.906503239999999
4460,DAPROC,C42 H36 N2 O4,COc1ccc(cc1)N(c1ccc(OC)cc1)c1c2ccccc2c(N(c2ccc(OC)cc2)c2ccc(OC)cc2)c2ccccc12,4.67736498
4461,DAPTOE,C18 H14 N2,N1C=CC=C1C1=C2C=CC=CC=C2C(=C1)C1=CC=CN1,4.298854609999999
4462,DAPXIB,C17 H18 B1 N1 O3,CC12CO[B-](OC1)(O[N+]2=Cc1ccccc1)c1ccccc1,5.562007100000001
4463,DAPYIC,C12 H11 N3 O2,CC=CC=CC(=O)N1N=[N+]([O-])c2ccccc12,6.117935699999999
4465,DAPYOI,C10 H11 N3 O3,CC(CC(O)=O)N1N=[N+]([O-])c2ccccc12,6.17616806
4466,DAQCOQ,C10 H12 F1 N3 O6,NC(=O)C1=NC(=CN(C2OC(CO)C(O)C2O)C1=O)F,6.231679290000001
4467,DAQCUW,C10 H13 N3 O6,NC(=O)C1=NC=CN(C2OC(CO)C(O)C2O)C1=O,6.66406819
4468,DAQDII,C28 H26 S6,CC1=C2SCCCCCCSC3=C(C)SC(=C4c5ccccc5C(=C(S1)S2)c1ccccc41)S3,5.39275229
4469,DAQDOO,C27 H24 S6,CC1=C2SCCCCCSC3=C(C)SC(=C4c5ccccc5C(=C(S1)S2)c1ccccc41)S3,5.50050937
4470,DAQGIM,C22 H26 N2 S4,CCCCCSC1=C(SCCCCC)SC(S1)=C1C=CC(C=C1)=C(C#N)C#N,3.9336778199999998
4471,DAQMIS,C22 H26 N4 O7,CN(C)C1C2CC3C(C(=O)c4c(O)cccc4C3(C)O)C3(O)NN=C(C(=C1O)C(N)=O)C23O,5.96391926
4472,DAQMUE,C10 H6 S2,S1Sc2cccc3cccc1c23,5.823780630000001
4473,DAQNUF,C18 H22 S2,CC(C)(C)c1ccc2ccc(c3SSc1c23)C(C)(C)C,5.70268997
4474,DAQQEU,C34 H25 N5,CN1c2ccccc2C=C1C1=C2C=CC=CC2=C(N1)N=C1N=C(C2=Cc3ccccc3N2C)c2ccccc12,3.5802019300000003
4475,DAQYIF,C44 H43 N5 O4,CCN(CC)c1ccc2c(Oc3cc(ccc3C32N(N2C(=O)c4cccc5c(ccc(C2=O)c45)N2CCCC2)C(=O)c2ccccc32)N(CC)CC)c1,5.1211826700000005
4476,DARBEG,C24 H14 O1,O1c2ccccc2c2ccc3c(C=Cc4cccc5cccc3c45)c12,5.57153109
4477,DARBIK,C20 H12 S1,S1c2ccccc2C2=C1c1cccc3cccc(C=C2)c13,5.26322609
4478,DARHUZ01,C20 H8 N4,N#CC(C#N)=C1c2ccccc2C(c2ccccc12)=C(C#N)C#N,5.57044263
4479,DARMIU,C24 H21 N3 O3 S1,Cc1ccc(cc1)S(=O)(=O)N1Cc2ccccc2NC1c1ccc2cccc(O)c2n1,6.04147171
4480,DARPIX,C21 H19 F3 N2 O2 S1,CCN(CC)c1ccc2C=C(C3Nc4cc(ccc4S3)C(F)(F)F)C(=O)Oc2c1,5.89480234
4481,DARSAR,C21 H13 F7 N2 O2 S1,COc1ccc(cc1S(=O)c1ccc(C)cc1)N=Nc1c(F)c(F)c(c(F)c1F)C(F)(F)F,5.72962924
4482,DARTAS,C18 H16 N2 S6,CCCSC1=C(SCCC)SC(S1)=C1Sc2cc(C#N)c(cc2S1)C#N,4.76961157
4483,DARXOK,C26 H12 F4,Fc1c(F)c(F)c2c3ccc4ccccc4c3c3c4ccccc4ccc3c2c1F,5.767453059999999
4484,DARZUU,C20 H14 Cl1 N1 S1,CC(=C)C1=C2C(=Nc3cc(Cl)ccc23)SC(=C1)c1ccccc1,5.09478762
4485,DASBAB,C6 H11 N1 O2,[NH3+]C1CCCC1C(=O)[O-],6.802302040000001
4486,DASBUV,C7 H11 N1 O2,[NH3+]C1CC=CCC1C(=O)[O-],6.72202845
4487,DASCBH,C12 H11 Br1 N2 O5,OCC(O)C1OC(=O)C(=NNc2ccc(Br)cc2)C1=O,5.618334669999999
4488,DASFEL,C32 H22 O8,COC1OCc2cc3c(C(=O)CC4CC(=O)c5c(O)cccc5C54c4ccc(O)c6C(=O)C=CC(=C35)c46)c(O)c12,5.21451772
4490,DASJAJ,C33 H26 N2,c1ccc(cc1)N(c1ccccc1)c1ccc(C=Cc2ccc(C=Cc3ccncc3)cc2)cc1,5.16390454
4491,DASJEN,C33 H24 N2,c1ccc2c(c1)N(c1ccc(C=Cc3ccc(C=Cc4ccncc4)cc3)cc1)c1ccccc21,5.39765034
4492,DASKEQ,C16 H23 N3,CC(C)N(N=NC=CC=Cc1ccccc1)C(C)C,5.5391495399999995
4493,DASKUG,C30 H20 O7,OCc1cc(O)c2C(=O)CC3CC(=O)c4c(O)cccc4C43c3ccc(O)c5C(=O)C=CC(=C4c2c1)c35,5.1179173
4494,DASLER,C31 H22 O7,CC(O)C1=CC2=C3c4cccc(O)c4C(=O)CC4CC(=C5C(=O)C=CC=C5C34c3ccc(O)c(C1=O)c23)O,4.33123616
4495,DASLIV,C31 H22 O7,CC(O)C1=CC2=C3c4cccc(O)c4C(=O)CC4CC(=O)c5c(O)cccc5C34c3ccc(O)c(C1=O)c23,5.02920818
4496,DASPOF,C27 H24 F3 N1 O2,CC(C)(C)N(C(=O)c1ccccc1)C(=CC(=O)c1ccccc1)c1ccc(cc1)C(F)(F)F,6.072492690000001
4497,DASTIA,C10 H11 N5 O3,CN1C(=O)NC2=C(N=CN2C(C)=O)C1=NC(C)=O,6.6300539700000005
4498,DASTOG,C22 H16,c1ccc(cc1)C=Cc1c2ccccc2cc2ccccc12,5.455338469999999
4499,DASVAU01,C44 H28,c1ccc(cc1)C#CC12c3ccccc3C(c3ccccc13)C(=C2c1c2ccccc2cc2ccccc12)c1ccccc1,5.35003042
4500,DASVAW,C10 H14 Br1 N1 O1,CCC[NH2+]Cc1cc(Br)ccc1[O-],5.66296135
4501,DASVIC,C26 H26 O8,CC(=O)OC(=C)c1c(C)cc2cc3c(c(O)c2c1OC(C)=O)C(=O)C(=C(OC(C)=O)C3(C)C)C,5.96582406
4502,DASWOJ,C16 H20 N2 O1 S3,CCN(CC)C1=C(C)SC(S1)=NC(=S)c1ccc(OC)cc1,5.5407822200000005
4503,DASZAB,C28 H25 I1 N2,CCc1ccc2c(c1)c(c(I)c1nc3ccccc3nc21)c1ccc(cc1)C(C)(C)C,5.49806035
4505,DATCUZ,C25 H31 N1 O6,COC1=CC23CCCN2CCc2cc4OCOc4cc2C3C1OC(=O)C(=O)CCC(C)C,6.44256752
4506,DATDEK,C44 H22,c1ccc2c(c1)c1ccc3ccc4c5ccccc5c5c6ccccc6c6ccc7c8ccccc8C2=C2c1c3c4c5c6c72,5.09642031
4509,DATMAN,C7 H13 N1 O2,[NH3+]C1CCCCC1C(=O)[O-],6.5737264
4510,DATNOD,C22 H22 O6,CCOC(=O)C(=COc1ccccc1)C#Cc1cc(OC)c(OC)c(OC)c1,6.05344471
4511,DATQIY02,C29 H42 O2,CC(C)(C)c1cc(C=C2C=C(C(=O)C(=C2)C(C)(C)C)C(C)(C)C)cc(c1O)C(C)(C)C,5.6128924
4512,DATTEX,C20 H14 Cl1 N3 O4,COC(=O)C1=NN(c2ccc(Cl)cc2)C2=Nc3ccccc3C2=C1C(=O)OC,5.403092610000001
4513,DATTEZ,C26 H28,C1CCCCCc2ccc3ccc4ccc(CCCC1)c1ccc2c3c41,5.47193742
4514,DATTID,C26 H28,C1CCCCCc2ccc3ccc4c(CCCC1)ccc1ccc2c3c41,5.5146593
4515,DATTOJ,C36 H24 O12,COC(=O)c1cc2C#Cc3cc(C(=O)OC)c(cc3C#Cc3cc(C(=O)OC)c(cc3C#Cc2cc1C(=O)OC)C(=O)OC)C(=O)OC,5.07818868
4516,DATWAX,C12 H4 Br2 N2,BrC1=C(Br)C(=C(C#N)C#N)c2ccccc12,4.631921960000001
4517,DATXON,C22 H15 Cl1 N2,CN1c2ccccc2c2c1nc1ccc(Cl)cc1c2c1ccccc1,5.75792908
4518,DAUSNA,C16 H14 O6,CC(=O)c1c(O)c(C)c(O)c2c1OC1=CC(=CC(=O)C21C)O,6.1388884599999995
4519,DAVCAH,C14 H9 N5 O1,N1C=CC=C1C1=NC2=NON=C2N=C1c1ccccc1,5.27655968
4520,DAVCEL,C18 H11 N5 O1 S1,N1C(=CC=C1C1=NC2=NON=C2N=C1C1=CC=CS1)c1ccccc1,4.74784246
4521,DAVCOU,C27 H23 Br1 N2 O3 S2,Cc1ccc(cc1)S(=O)C1=CC(CBr)N(C1c1ccccc1)S(=O)(=O)c1cccc2cccnc12,6.276578069999999
4522,DAVCOV,C24 H17 N5 O1,CCN1c2ccccc2c2cc(ccc12)C1=NC2=NON=C2N=C1c1ccccc1,4.82376223
4523,DAVCUB,C24 H16 Br1 N5 O1,CCN1c2ccccc2c2cc(ccc12)C1=NC2=NON=C2N=C1c1ccc(Br)cc1,4.824034340000001
4524,DAVFUE,C13 H9 N7 S1,NC1=C(N=C(S1)N=Nc1ccccc1)C(N)=C(C#N)C#N,5.053970550000001
4525,DAVGAL,C26 H24 N4 O1 S1,CCCN1C(=O)C2(NC(=S)N(N=Cc3ccccc3)C2c2ccccc2)c2ccccc12,6.20337945
4526,DAVHOZ,C19 H20 N4 O2 S2,O=C(NC(=S)NCCCNC(=S)NC(=O)c1ccccc1)c1ccccc1,6.19195066
4527,DAVJUI,C18 H17 N1 O2,CCN1C(=CC(C=C1C)=C1C(=O)c2ccccc2C1=O)C,5.547857189999999
4528,DAVKAP,C16 H22 N2 O2,CCCCN1C(=CC(C=C1C)=C(C#N)C(=O)OCC)C,5.9407895900000005
4529,DAVKUJ,C15 H9 N3 O1 S2,O1C=CC=C1c1cc(nc(c1)C1=NC=CS1)C1=NC=CS1,5.82187583
4530,DAVLAP01,C19 H16 F3 N3 O1,COc1ccc(cc1)C(C)=NNc1ccnc2c1cccc2C(F)(F)F,5.95820487
4531,DAVLEU,C21 H26 N2 O6,COc1ccc(cc1)N=Nc1ccc2OCCOCCOCCOCCOc2c1,5.7347994
4532,DAVLUJ,C21 H19 N1 O5,COc1ccc(cc1OC)C1=C(C)OC(=O)C(=C1)NC(=O)c1ccccc1,6.11575879
4533,DAVQAT,C21 H16 N2,N(C=Nc1cccc2ccccc12)c1cccc2ccccc12,5.918204130000001
4534,DAVQEY,C22 H20 N6,C(N1C=CN=C1)C(=NN=C(CN1C=CN=C1)c1ccccc1)c1ccccc1,6.017525690000001
4535,DAVRAW,C25 H8 N8 S4,S1N=C2C=C3C4=CC5=NSN=C5C=C4C4(C3=CC2=N1)C1=CC2=NSN=C2C=C1C1=CC2=NSN=C2C=C41,5.50459108
4536,DAVRIE,C10 H4 N4 S2,S1N=C2C=CC3=C(C=CC4=NSN=C34)C2=N1,5.7908548500000006
4537,DAVSEB,C14 H4 N4 O2 S2,O=C1C2=C(C(=O)C3=C1C1=NSN=C1C=C3)C1=NSN=C1C=C2,5.381867740000001
4538,DAVTIF,C24 H22 Br2 N2 O6,COc1cc2N(C)C(=O)C(=C(c2cc1OC)C1=C(Br)C(=O)N(C)c2cc(OC)c(OC)cc12)Br,5.97072211
4539,DAVTOL,C12 H7 N3 O2,COc1ccc2NC(=O)C(=C(C#N)c2c1)C#N,5.431392449999999
4540,DAVVIF,C16 H8 O4,O=C1Oc2ccccc2C2=C1c1ccccc1OC2=O,5.53207458
4541,DAVVOL,C32 H40 O4,CC(C)(C)c1cc2c(OC(=O)C3=C2C(=O)Oc2c3cc(cc2C(C)(C)C)C(C)(C)C)c(c1)C(C)(C)C,5.572347430000001
4542,DAVVUR,C26 H28 O4,Cc1cc2c(OC(=O)C3=C2C(=O)Oc2c3cc(C)cc2C(C)(C)C)c(c1)C(C)(C)C,5.540238
4544,DAVWAY01,C26 H28 O6,COc1cc2c(OC(=O)C3=C2C(=O)Oc2c3cc(OC)cc2C(C)(C)C)c(c1)C(C)(C)C,5.18404097
4545,DAVXIK,C32 H22 N2 O5,CCOC(=O)C1=C(NC(=O)c2ccccc2)C2=CC=CN3C(=O)C(=C4C=CC=C1C4=C23)C(=O)c1ccccc1,4.355454290000001
4546,DAVXUW,C23 H35 N3 O2 S1,CCCCCCCCN1C(=CC(C=C1C)=C1C(=O)N(CC)C(=S)N(CC)C1=O)C,5.48309409
4547,DAVZOP,C16 H8 O4,O=C1Oc2ccccc2C1=C1C(=O)Oc2ccccc12,5.65534216
4548,DAVZUV,C32 H40 O4,CC(C)(C)c1cc2c(OC(=O)C2=C2C(=O)Oc3c2cc(cc3C(C)(C)C)C(C)(C)C)c(c1)C(C)(C)C,5.2308445400000005
4549,DAWBEI,C26 H28 O6,COc1cc2c(OC(=O)C2=C2C(=O)Oc3c2cc(OC)cc3C(C)(C)C)c(c1)C(C)(C)C,4.624847
4550,DAWCAI,C19 H12 N2,c1ccc(cc1)C1=C2C=CC=C3N2C(=N1)c1ccccc31,5.27438276
4551,DAWCEM,C14 H10 N2 O1,OCc1ccc2c(c1)C1=CC=CC3=CN=C2N13,5.593300200000002
4552,DAWCIQ,C16 H14 N2 O3,COc1cc2C3=NC=C4C=CC=C(N34)c2c(OC)c1OC,5.63248459
4553,DAWFUF,C27 H22,C1CC2CC1C1C2C(c2ccccc12)=C1c2ccccc2c2ccccc12,5.463229780000001
4554,DAWGOX,C14 H18 N2 O5,[NH3+]C(CC(=O)[O-])C(=O)NC(Cc1ccccc1)C(=O)OC,6.49018745
4555,DAWHOB,C15 H17 N1 O2 S1,O=CC=CC1=CC(=C(S1)N1CCCCC1)C=CC=O,5.6890842699999995
4556,DAWHUH,C17 H13 N5 S1,N#CC(=CC1=CC(=C(S1)N1CCCCC1)C=C(C#N)C#N)C#N,5.14812193
4557,DAWJAP,C18 H23 N1 O2 S1,CC1(C)CC(=O)C(=CC2=CC=C(S2)N2CCCCC2)C(=O)C1,5.0531542
4558,DAWJET,C21 H19 N1 O2 S1,O=C1C(=CC=CC2=CC=C(S2)N2CCCCC2)C(=O)c2ccccc12,4.31327664
4559,DAWJIX,C18 H21 N1 O4 S1,CC1(C)OC(=O)C(=CC=CC2=CC=C(S2)N2CCCCC2)C(=O)O1,4.5266139
4560,DAWJOD,C19 H17 N1 O2 S1,O=C1c2ccccc2C(=O)C1=CC1=CC=C(S1)N1CCCCC1,4.91383192
4561,DAWJUJ,C12 H15 N1 O1 S1,O=CC=CC1=CC=C(S1)N1CCCCC1,5.54159856
4562,DAWLAR,C12 H13 N3,CCN1C(=CC(C=C1C)=C(C#N)C#N)C,5.78922217
4563,DAWLIZ,C14 H17 N3,CCCCN1C(=CC(C=C1C)=C(C#N)C#N)C,5.75384737
4564,DAWLOF,C18 H25 N3,CCCCCCCCN1C(=CC(C=C1C)=C(C#N)C#N)C,5.738064769999999
4565,DAWLUI,C19 H28 N1 P1 S1,S=C(Nc1ccccc1)P(C1CCCCC1)C1CCCCC1,6.19222278
4566,DAWLUL,C15 H18 N2 O3 S1,CCN1C(=O)C(C(=O)N(CC)C1=S)=C1C=C(C)OC(=C1)C,5.30295471
4567,DAWMEU,C15 H10 Cl2 F3 N1 O2,COc1cccc(Nc2cc(Cl)ccc2Cl)c1C(=O)C(F)(F)F,6.01072285
4568,DAWMIA,C19 H27 N3 O2 S1,CCCCN1C(=CC(C=C1C)=C1C(=O)N(CC)C(=S)N(CC)C1=O)C,5.42567806
4569,DAWMOG,C28 H20 Br2,CC1C(C)C(c2c1ccc1ccccc21)=C1c2cc(Br)ccc2c2ccc(Br)cc12,5.27792025
4570,DAWPID,C24 H25 N1 O4,CC1(C)CC(=O)C(C(=O)C1)=C1NC(c2ccccc12)=C1C(=O)CC(C)(C)CC1=O,5.02213323
4571,DAWTAX,C18 H21 N1 O1 S1,CC(O)C(C)C(NC(=S)c1ccccc1)c1ccccc1,6.30759905
4572,DAWTIF,C24 H22 O6,COC(=O)C1OC(=CC(=C1C(=O)OC)C(=O)c1ccc(C)cc1)c1ccc(C)cc1,5.89480234
4573,DAXBOW,C8 H3 N11 O5,NC1=NC(=NO1)C1=NON=C1N=NC1=NON=C1C1=NOC(=O)N1,5.80881437
4574,DAXBUB,C22 H6 Br4 S4,BrC1=Cc2c(S1)c1cc3c4SC(=Cc4c4C=C(Br)Sc4c3cc1c1SC(=Cc21)Br)Br,5.215606170000001
4575,DAXJEU,C25 H28 N2 O2 S1,Cc1ccc(cc1)S(=O)(=O)N=C1C2CC=CCCCCN1CC=C2c1ccccc1,5.37452066
4576,DAXJOE,C11 H9 N3 O1,O=C(N=Nc1ccccc1)C1=CC=CN1,6.0300429300000005
4577,DAXMIB,C12 H9 N3 S1,S1N=C2C=CC=CN2C1=Nc1ccccc1,5.76554827
4578,DAXSOM01,C29 H34 O1,Cc1ccc(cc1)C(c1ccc(C)cc1)=C1C=C(C(=O)C(=C1)C(C)(C)C)C(C)(C)C,5.08771266
4579,DAXTED,C27 H30 O1,CC(C)C1=CC(C=C(C(C)C)C1=O)=C(c1ccc(C)cc1)c1ccc(C)cc1,5.08118193
4580,DAXWEH,C17 H16 O6,COC1=CC(=O)C2=C(C3OC(=O)C4(CCC=C(C)C2)OC34)C1=O,5.67711126
4581,DAXXIM,C19 H16 N4,N(c1ccccc1)C(N=Nc1ccccc1)=Nc1ccccc1,5.09805299
4582,DAXYEJ,C22 H13 N1 O2,O1c2ccccc2N2c3c1cccc3Oc1ccc3ccccc3c21,5.63874321
4583,DAXYUZ,C23 H13 N1 O3,O=Cc1cc2Oc3cccc4Oc5ccccc5N(c34)c2c2ccccc12,5.11655673
4584,DAYBIR,C34 H24 N2 O2 S2,CC(=O)Sc1ccc(cc1)c1ccc(cc1)C1=CC2=CC=CC(=CC2C1(C#N)C#N)c1ccc(SC(C)=O)cc1,5.47765181
4585,DAYDEM,C22 H21 N3 O5 S2,COc1cc(ccc1Nc1c2ccccc2nc2ccccc12)N(S(C)(=O)=O)S(C)(=O)=O,5.324179600000001
4586,DAYFUF,C20 H11 F2 N1 O2,Fc1cccc(F)c1OC(=O)c1c2ccccc2nc2ccccc12,5.67493435
4587,DAYHER,C19 H15 N1 O5,COc1cc2C(=O)N3C(=Cc2c(OC)c1OC)C(=O)c1ccccc31,5.333431470000001
4588,DAYJAO,C22 H13 Br1 O2,Cc1c(Br)c2ccccc2c2c1OC(=O)c1ccc3ccccc3c21,5.54404759
4589,DAYMIC,C32 H18 F3 N1,Fc1ccc(cc1)C#Cc1cc2N(c3ccc(F)cc3)C(=Cc2c2ccccc12)c1ccc(F)cc1,5.57017052
4590,DAYNOJ,C32 H24 N6,C(N1C=CN=C1c1ccccn1)c1c2ccccc2c(CN2C=CN=C2c2ccccn2)c2ccccc12,5.35928229
4591,DAYTED,C22 H29 N3 O5,CCCCc1ccc(cc1)N=NC1=CC(=CNC(CO)(CO)CO)C(=O)C(=C1)OC,5.21778308
4592,DAYVAA,C16 H17 N1 O2,CN(C1CC(=CC=CC1=O)C(C)=O)c1ccccc1,4.5698799999999995
4593,DAYVAD,C17 H13 N1 O3,CN1C=C2C=C3C(=O)OC(=O)C3=C(C)Cc3cccc1c23,5.5908511700000005
4594,DAYYEJ,C22 H19 N1 O1,O=C(c1ccccc1)C1(CC1c1ccccc1)Nc1ccccc1,6.1729027
4595,DAYZAF01,C21 H17 N1 O2,Oc1ccccc1NC(=CC(=O)c1ccccc1)c1ccccc1,5.8991561599999995
4596,DAZBEN,C20 H22 O3,CCOC(=O)CC1=C(C=C2CCCCC2)C(=O)c2ccccc12,5.70296208
4597,DAZCIT,C25 H19 Cl2 N5 O1 S1,Clc1ccc(cc1)C1CC(=NN1C(=O)NNC1=NC(=CS1)c1ccc(Cl)cc1)c1ccccc1,6.05807065
4598,DAZDUG,C21 H22 N2 O4,CN1CC2C(C(=O)N(C3CCCCC3)C2=O)C21C(=O)c1ccccc1C2=O,6.13480676
4599,DAZFER,C32 H26 S8,CSC1=C(SC)SC(S1)=C(c1cccc2ccccc12)C(=C1SC(=C(SC)S1)SC)c1cccc2ccccc12,4.6599496899999995
4600,DAZFIV,C32 H26 S8,CSC1=C(SC)SC(S1)=C(c1ccc2ccccc2c1)C(=C1SC(=C(SC)S1)SC)c1ccc2ccccc2c1,5.28200195
4601,DAZFLU10,C13 H8 N2,[N-]=[N+]=C1c2ccccc2c2ccccc12,6.20337945
4602,DAZHET,C21 H23 N1 O2,C[N+]1(C)C(c2cccc3cccc1c23)[C-]1C(=O)CC(C)(C)CC1=O,5.55030621
4603,DAZHOD,C22 H17 N1 O2,C[N+]1(C)C(c2cccc3cccc1c23)[C-]1C(=O)c2ccccc2C1=O,5.39574554
4604,DAZHUJ,C21 H23 N1 O4,CC[N+]1(CC)C(c2cccc3cccc1c23)[C-]1C(=O)OC(C)(C)OC1=O,5.79194331
4605,DAZJAR,C18 H19 N1 O2,CN(C)c1cccc2cccc(C=C(C(C)=O)C(C)=O)c12,6.096438709999999
4606,DAZJOF,C22 H17 N1 O2,CN1CC2(Cc3cccc4cccc1c34)C(=O)c1ccccc1C2=O,5.05342632
4607,DAZKOH,C46 H28 N2,c1ccc2c(c1)N(c1ccc(cc1)C#Cc1ccc(cc1)C#Cc1ccc(cc1)N1c3ccccc3c3ccccc13)c1ccccc21,5.74622818
4608,DAZLEX,C17 H16 O6,COC1=CC(=O)c2c(OC)c3COC(=Cc3c(OC)c2C1=O)C,5.26621935
4609,DAZPNE,C12 H8 N2,c1ccc2c(c1)nnc1ccccc21,6.73291301
4610,DAZRAA,C45 H50 S2,CCCCCCCCC1(CCCCCCCC)c2cc(ccc2c2ccc(cc12)C1=Cc2ccccc2S1)C1=Cc2ccccc2S1,5.3701668399999996
4611,DAZSIJ,C14 H15 N1 O3,CC(C)(C)OC(=O)C1=C(N)c2ccccc2C1=O,6.1190241499999996
4612,DAZTUU,C15 H8 N2 S1,N#CC1=C2C=C3CC(=CC2=C(S1)C#N)C=CC=C3,4.95165574
4613,DAZVAC,C13 H10 S1,C1C2=CC3=CSC=C3C=C1C=CC=C2,5.37805814
4614,DAZVUW,C26 H20 N4 O1,CC(C)C1=CC=C2CC(C#N)(C#N)C(C#N)(C#N)C(C3=CC=CO3)C3=C2C(=C1)C(=C3)C,4.944036540000001
4615,DAZXAE,C24 H23 N3 O3,COC(=O)C1=CN(CCC2=C(C1)C(=O)NC(=N2)c1ccccc1)Cc1ccccc1,5.87548226
4616,DAZXAG,C16 H14 N2 O2,NCCNc1cccc2C(=O)c3ccccc3C(=O)c12,5.01070444
4617,DBANQU,C22 H12 O2,O=C1c2ccc3ccccc3c2C(=O)c2ccc3ccccc3c12,5.20662641
4618,DBDCCH,C6 H2 Br2 Cl2 O1,ClC1(Cl)C=C(Br)C(=O)C(=C1)Br,5.803916320000003
4619,DBEZLM11,C15 H12 O2,OC(=CC(=O)c1ccccc1)c1ccccc1,6.3886889899999995
4620,DBINDB,C18 H16 N2 O4,COC1(Nc2ccccc2C1=O)C1(Nc2ccccc2C1=O)OC,5.86405347
4621,DBMEAN10,C13 H10 Br2,BrC1=CC=C2CC(=CC=C(Br)C=C2)C=C1,5.4504404300000004
4622,DBODIM,C14 H10 N2 O2,O=C(N=NC(=O)c1ccccc1)c1ccccc1,6.7348178
4623,DBPERY,C28 H16,c1ccc2c(c1)cc1c3cccc4c5ccccc5cc(c5cccc2c15)c34,4.77559807
4624,DBPHCN,C22 H10 Br2 N4,Brc1ccc(cc1)C(C=C(C#N)C#N)=C(C=C(C#N)C#N)c1ccc(Br)cc1,5.18975536
4625,DBRCYC,C10 H5 Br2 N1,BrC1=CC2=CC(=C3C=CC=C1N23)Br,5.772623219999998
4626,DBRING01,C16 H8 Br2 N2 O2,Brc1ccc2C(=O)C(Nc2c1)=C1Nc2cc(Br)ccc2C1=O,4.405523240000001
4627,DBRNPQ10,C10 H4 Br2 O2,BrC1=C(Br)C(=O)c2ccccc2C1=O,5.95221836
4628,DBZCOR,C32 H16,c1ccc2c(c1)c1ccc3ccc4c5ccccc5c5ccc6ccc2c2c6c5c4c3c12,5.23982431
4629,DBZIMY01,C34 H36 N4,C1CN(Cc2ccccc2)C(N1Cc1ccccc1)=C1N(CCN1Cc1ccccc1)Cc1ccccc1,6.142153840000001
4630,DCANTX10,C40 H50 O2,CC(=CC=CC(C)=CC#CC=C(C)C=CC=C(C)C=CC1=C(C)C(=O)CCC1(C)C)C=CC1=C(C)C(=O)CCC1(C)C,4.18647159
4631,DCAROT,C40 H54,CC(=CC=CC(C)=CC#CC=C(C)C=CC=C(C)C=CC1=C(C)CCCC1(C)C)C=CC1=C(C)CCCC1(C)C,4.46457194
4632,DCDHNQ,C10 H4 Cl2 O4,Oc1ccc(O)c2C(=O)C(=C(Cl)C(=O)c12)Cl,5.58214353
4633,DCHCBN,C19 H21 N1 O5,CCN(CC)C1=C(C2C(=O)c3ccccc3C(=O)C12OC)C(=O)OC,5.51710832
4634,DCHXAL01,C16 H8 N4,c1ccc2nc3c(nc2c1)c1nc2ccccc2nc31,5.51057758
4635,DCINDG,C16 H8 Cl2 N2 O2,Clc1ccc2C(=O)C(Nc2c1)=C1Nc2cc(Cl)ccc2C1=O,4.375862829999999
4636,DCLANT12,C14 H8 Cl2,Clc1c2ccccc2c(Cl)c2ccccc12,5.26458666
4637,DCLBQN02,C6 H2 Cl2 O2,ClC1=CC(=O)C=C(Cl)C1=O,6.402838910000001
4638,DCLBZQ20,C6 H2 Cl2 O2,ClC1=C(Cl)C(=O)C=CC1=O,6.015893009999999
4639,DCLMAN,C15 H10 Cl2,Cc1c2c(Cl)cccc2cc2cccc(Cl)c12,5.21996
4640,DCNHEF10,C10 H6 N2,N#CC(C#N)=C1C=CC=CC=C1,5.4692162799999995
4641,DCNSTI,C16 H10 N2,N#CC(c1ccccc1)=C(C#N)c1ccccc1,5.51193816
4642,DCTXAN,C14 H10 Cl2 N2 S2,Clc1ccc(NC(=S)C(=S)Nc2ccc(Cl)cc2)cc1,5.47112108
4643,DDQCHD10,C18 H16 Cl2 N2 O2,CC1=CC2(C)CC(C)(C)C1C1(C#N)C(=O)C(=C(Cl)C(=O)C21C#N)Cl,6.065417719999999
4644,DDRUGT,C27 H24 O10,COc1cccc2C(=O)c3cc4CC(CC(OC(C)=O)c4c(OC(C)=O)c3C(=O)c12)(OC(C)=O)C(C)=O,6.0088180399999995
4645,DEBFIC,C28 H28 N2 O1,CCCCC#CC1=C(CCCC)c2ccccc2C(=O)N1c1cccc2cccnc12,5.74949355
4646,DEBHIB,C30 H20,c1ccc2c(c1)cc1ccccc1c2C=Cc1c2ccccc2cc2ccccc12,5.10512795
4647,DEBHIE,C21 H26 N2 O3 S1,COc1ccc(NC(C=C)C2CCCN2S(=O)(=O)c2ccc(C)cc2)cc1,5.561190760000001
4648,DEBHOH,C30 H18 Br2,Brc1c2ccccc2c(C=Cc2c3ccccc3c(Br)c3ccccc23)c2ccccc12,5.18159194
4649,DEBHUQ,C27 H18 O7,CC(=O)Oc1ccc2c(c1)cc(OC(C)=O)c1cc3C(=O)C=Cc4ccc(OC(C)=O)c(c34)c21,5.19927934
4650,DEBMAB,C30 H18 O2 S2,O=S1(=O)c2ccc(cc2c2cc(ccc12)c1cccc2ccccc12)C1=Cc2ccccc2S1,5.578061830000001
4651,DEBPOP,C22 H19 N1 O6,CN1C2=C(C=CC(=C(C(C)=O)C2=O)O)C(=O)c2c(O)cc3OC(C)(C)C=Cc3c12,5.49669978
4652,DEBQEJ,C36 H40 N4,CN1CCN(CC1)c1ccc(cc1)C(c1ccc(cc1)N1CCN(C)CC1)=C(c1ccccc1)c1ccccc1,5.768269399999999
4653,DEBSOV,C22 H28 O4,COC1=CC(=O)C2=C(CC3(C)C(C)CCC4(C)C(=C)CCCC34O2)C1=O,6.0790234199999995
4654,DEBVIR,C23 H18 N2 O1,CN1c2ccccc2C2=C1c1ccccc1C(=O)N2c1ccc(C)cc1,5.77888184
4655,DEBZEP,C18 H18 O4,COc1cc2CCC3=CC(=O)C=C(CCc(c1)c2OC)C3=O,5.80228363
4657,DECBIW,C19 H20 N1 O3 P1,CCOP(=O)(OCC)C=CC(=Cc1cccc2ccccc12)C#N,5.89289754
4658,DECCIY,C14 H10 N2 S4,Nc1ccc2SC(Sc2c1)=C1Sc2ccc(N)cc2S1,5.78976639
4659,DECFID,C26 H32 N2 O4,CCOC(=O)C1=C(CC)C(=C(N1)C#CC#CC1=C(CC)C(=C(N1)C(=O)OCC)CC)CC,5.64391337
4660,DECHAU,C13 H10 N2 O1 S2,O=S=NSN=C(c1ccccc1)c1ccccc1,5.9187483599999995
4662,DECSEK,C26 H36 B1 F1 N2 O2,CC(C)N(C(C)C)C(=O)c1ccccc1[B-]1(F)OC(=[N+](C(C)C)C(C)C)c2ccccc12,6.57563119
4663,DECUSN,C20 H19 N3,CC1N2c3ccccc3C3=C2C(=Cc2ccncc12)N(C)CC3,5.71711199
4664,DECWAM,C49 H38 N4,Cc1ccc(cc1)N1c2ccccc2c2cc(ccc12)c1ccc(nc1)C1=Nc2c3ccccc3c3ccccc3c2N1c1ccc(cc1)C(C)(C)C,5.74105802
4665,DECYAM,C15 H15 N7 O2,OCCN(CCO)c1ccc(cc1)N=NC1=NC(=C(N1)C#N)C#N,5.1886669
4668,DEDBOG,C17 H19 Cl1 N2 O1,CCN(CC)c1ccc(C=Nc2ccc(Cl)cc2)c(O)c1,5.94840877
4669,DEDCAT,C17 H19 Cl1 N2 O1,CCN(CC)c1ccc(C=Nc2cccc(Cl)c2)c(O)c1,5.83820266
4670,DEDCUN,C30 H12 O4,O=C1Oc2ccc3c4ccccc4c4C(=O)Oc5ccc6c7ccccc7c1c1c2c3c4c5c61,4.86158605
4671,DEDDAR,C20 H16 N6 O2,CN1C(=O)N(c2ccccc2)C2=NC3=C(N=C12)N(c1ccccc1)C(=O)N3C,6.02759391
4672,DEDDEV,C19 H20 O8,COC1=CC(=O)c2c(O)c3C(O)C4OC(C)(C)OC4(C)Cc3c(O)c2C1=O,5.91303398
4673,DEDDEY01,C38 H16 O4,O=C1Oc2ccc3c4c5ccccc5ccc4c4C(=O)Oc5ccc6c7c8ccccc8ccc7c1c1c2c3c4c5c61,4.452054700000001
4674,DEDDIC01,C30 H8 F4 O4,Fc1cc(F)c2c3ccc4OC(=O)c5c6cc(F)cc(F)c6c6ccc7OC(=O)c(c2c1)c1c7c6c5c4c31,4.844714999999999
4675,DEDFEA,C34 H35 N3 O4,COc1ccc(cc1)C=C1CN(CC=C)CC2(C(CN(C)C32C(=O)Nc2ccccc32)c2ccc(OC)cc2)C1=O,6.42406378
4676,DEDLOQ,C17 H13 N1 O1 S2,COc1ccc(cc1)C1=CC(=NC(=S)S1)c1ccccc1,4.92362801
4677,DEDPAG,C27 H24 Br1 N3 O1,CN(Cc1ccccc1)C1=C(C=CC(=O)c2ccc(Br)cc2)C(=NN1c1ccccc1)C,5.96228658
4678,DEDSEK,C14 H20 N2 O2,O=C1C(=C([O-])C1=[N+]1CCCCC1)N1CCCCC1,6.05153992
4679,DEDWEO,C19 H13 N1 O1,[O-][N+](c1ccccc1)=C1c2ccccc2c2ccccc12,5.73588786
4680,DEDYEQ,C18 H28 S6,CCSC1=C2C(=S=C(SCC)C2=C(S1)SC(C)(C)C)SC(C)(C)C,4.1211642600000005
4682,DEFFEZ,C8 H6 N2 O1 S2,CC1=C(SSC1=O)c1cnccn1,5.830039249999999
4683,DEFFOM,C19 H13 Cl1 O2,COc1ccc(cc1)C1=C(CC1=O)C#Cc1ccc(Cl)cc1,5.33451992