,ID,formula,smiles,HOMO_LUMO_gap
5372,DOHCIP,C56 H32 N6,N#Cc1c(N2c3ccccc3c3ccccc23)c(N2c3ccccc3c3ccccc23)c(C#N)c(N2c3ccccc3c3ccccc23)c1N1c2ccccc2c2ccccc12,5.11437982
5373,DOHLOE,C30 H29 N5 O1,CCN1C(=CC(=C(C#N)C#N)c2ccccc12)C=Cc1ccc(cc1)N1CCN(CC1)C(=O)C(C)=C,4.8330141
5374,DOHMOF,C37 H27 N3 O3,O=C1CC2(C3N(CCc4ccccc34)C3(C2c2ccccn2)C(=O)c2cccc4cccc3c24)C(=O)N1c1ccccc1,6.18351514
5375,DOHREX03,C20 H17 F1 O3 S1,CC1=C(CC(O)=O)c2cc(F)ccc2C1=Cc1ccc(cc1)S(C)=O,5.7103091500000005
5376,DOHYAD,C31 H31 N3 O5 S1,CCOC(=O)C1=C(N)SC(=C1C(=O)OCC)NC(=O)c1ccc(cc1)N(c1ccc(C)cc1)c1ccc(C)cc1,5.67085265
5377,DOHZUY,C20 H16 Cl2 N2 O3 S1,Clc1ccc(C=C2Sc3ccccc3N(CCN3CCOC3=O)C2=O)c(Cl)c1,5.66187288
5378,DOJBEM,C20 H19 N3 O3,COc1ccc(cc1)N=Nc1ccc(O)c(c1)C(O)Cc1ccccn1,5.92473486
5379,DOJBIO,C35 H29 Br2 N3 O2,CCC(CC)(C(=O)Nc1ccccc1)C(=O)C1=C(Nc2ccc(Br)c3ccccc23)c2cc(Br)c3ccccc3c2N1,5.19519763
5380,DOJCAJ,C10 H13 N3 O1 S1,CNC(=S)NN=Cc1cccc(C)c1O,5.9288165799999994
5381,DOJFEO,C32 H26 Br2 N2 O2,Cc1ccc(NC(=CC(=O)c2ccc(Br)cc2)C(Nc2ccc(C)cc2)=CC(=O)c2ccc(Br)cc2)cc1,5.54295914
5382,DOJFIS,C30 H24 N4 O2,Cc1ccc(NC2=CC(=O)C3=CC(C=CN3C2=Nc2ccc(C)cc2)=CC(=O)c2ccccn2)cc1,4.56443773
5385,DOJJET,C14 H11 N1 O4,CC1(C)OC(=O)C2=CC(=O)N3C=CC=CC3=C2C1=O,5.70786013
5386,DOJLOF,C16 H16 N2 O3,COC(=O)c1c(O)cc(C)c(N=Nc2ccccc2)c1C,6.09671082
5387,DOJLUL,C18 H20 N2 O3,CCc1c(C)c(N=Nc2ccccc2)c(C)c(C(=O)OC)c1O,6.47413273
5388,DOJMAS,C18 H20 N2 O3,COC(=O)c1c(O)cc(C)c(N=Nc2cc(C)cc(C)c2)c1C,6.10460213
5390,DOJMEW,C21 H26 N2 O3,CCOC(=O)c1c(C)c(N=Nc2ccc(cc2)C(C)(C)C)c(C)cc1O,6.2888231999999995
5391,DOJMIA,C18 H19 Cl1 N2 O3,CCc1c(C)c(N=Nc2ccc(Cl)cc2)c(C)c(c1O)C(=O)OC,6.200930420000001
5392,DOJMOG,C16 H15 Br1 N2 O3,COC(=O)c1c(C)c(N=Nc2ccc(Br)cc2)c(C)cc1O,6.06541773
5393,DOJMUM,C19 H20 N2 O3,COC(=O)c1c(C)c(N=Nc2ccccc2)c(C)c2CCCOc12,6.1097722800000005
5394,DOJPEX,C26 H18 N6,c1ccc2N=Cc3cccc(C=Nc4ccccc4N=Cc4cccc(C=Nc2c1)n4)n3,5.85915543
5395,DOJQEB,C23 H24 N2 O2,CCCCc1ccc2N=C3N(C(=O)c2c1)c1ccc(CCCC)cc1C3=O,5.70840436
5396,DOJQOL,C17 H12 N2 O4,COc1ccc2N=C3N(C(=O)c2c1)c1ccc(OC)cc1C3=O,5.37805814
5397,DOJQUR,C17 H6 F6 N2 O4,FC(F)(F)Oc1ccc2N=C3N(C(=O)c2c1)c1ccc(OC(F)(F)F)cc1C3=O,5.763643459999999
5398,DOJVUW,C18 H17 N1 O2,OC(=O)C(=CCN1CCc2ccccc12)c1ccccc1,6.36419874
5399,DOJXAC,C25 H22 O1 S1,CC(=O)C(=Cc1ccccc1)C(Sc1ccc(C)cc1)=Cc1ccccc1,5.46268555
5400,DOJZUA,C27 H17 Br2 N1,Brc1ccc(cc1)C=C1N=C(c2ccc(Br)cc2)c2ccccc2c2ccccc12,5.7595617599999995
5401,DOKFUF,C48 H40 O2,CCCCCCOc1c2cccc3C#CC#Cc4cccc5c(OCCCCCC)c6cccc(C#CC#Cc7cccc1c7cc23)c6cc45,4.28307201
5402,DOKJOE,C18 H11 N1 O1,O=C1c2ccc(cc2c2ncccc12)c1ccccc1,5.95194625
5403,DOKJUK,C19 H10 F3 N1 O1,FC(F)(F)c1ccc2C(=O)c3ccc(cc3c2n1)c1ccccc1,5.82568543
5404,DOKJUL,C22 H15 Cl1 O7,COCOc1c(Cl)cc2c3c1C(=O)C=CC13Oc3ccc(O)c4C(=O)CCC2(O1)c34,5.9497693499999995
5405,DOKKAR,C18 H11 N1 O1,O=C1c2cccnc2c2ccc(cc12)c1ccccc1,5.8104470500000005
5406,DOKKEV,C18 H11 N1 O1,O=C1c2ccccc2c2nc(ccc12)c1ccccc1,5.92255796
5407,DOKMUL,C18 H24 N2 O5,OC(=O)CN1CCCCC([NH2+]C(CCc2ccccc2)C(=O)[O-])C1=O,7.02053734
5408,DOKNAT,C23 H25 N3 O2,CCOC(=O)c1c(C)nc(nc1c1ccc(C)cc1)c1ccc(cc1)N(C)C,5.77289534
5409,DOKNIA,C28 H30 O5,COc1ccc(cc1)C(C1=CC=C(C=C(O)C1=O)C(C)C)C1=CC=C(C=C(O)C1=O)C(C)C,5.92092527
5410,DOKPEZ,C24 H26 N2 O14,COC(=O)C1=NN(C2CC2)C2(C(=O)OC)C(=C(C(=O)OC)C(=C(C(=O)OC)C12C(=O)OC)C(=O)OC)C(=O)OC,6.13290196
5411,DOKQOL,C33 H21 N1,N#Cc1ccc(C=Cc2ccc(cc2)C=Cc2ccc3ccc4cccc5ccc2c3c45)cc1,4.76797889
5412,DOKQUQ,C17 H9 Cl2 N1 O3,Clc1ccc(cc1)C(=O)NC1=C(Cl)C(=O)c2ccccc2C1=O,5.912761860000001
5413,DOKQUR,C35 H21 N1,N#Cc1ccc(cc1)C#Cc1ccc(C=Cc2ccc3ccc4ccc5ccccc5c4c3c2)cc1,5.2338378
5414,DOKRAY,C35 H21 N1,N#Cc1ccc(C=Cc2ccc(cc2)C#Cc2ccc3ccc4ccc5ccccc5c4c3c2)cc1,5.16363243
5415,DOKSAY,C16 H13 N1 O3 S1,Nc1cccc(OS(=O)(=O)c2cccc3ccccc23)c1,6.08283301
5416,DOKTIH,C14 H12 Cl1 N3 O1 S1,Cc1cccc(NC(=S)NC(=O)c2ccc(Cl)cc2)n1,5.987321059999999
5417,DOKVAD,C18 H26 B1 N1 O3,CCC[NH+]=C1O[B-]2(OC(C)(C)C(C)(C)O2)C(=C1)c1ccccc1,6.68447674
5418,DOKWEG,C15 H13 N3,Cc1ccc(Nc2cnc3ccccc3n2)cc1,5.944599180000001
5420,DOKYIM,C9 H8 N4 S1,NC(=S)NN=Cc1ccc(cc1)C#N,5.34866985
5421,DOKZAE,C18 H16 S3,C1SCC2=C3C=CC=CC=C3C(=C2)CSCC2=CC=C1S2,5.218327309999999
5422,DOLBAI,C18 H17 Br1 O4,COc1cc(C=CC(=O)c2ccc(Br)cc2)cc(OC)c1OC,5.76636461
5423,DOLJUM,C40 H25 N1 O2,O=C1C=CC(=O)N1c1ccc2ccc3c(ccc4ccc1c2c34)C(c1ccccc1)=C(c1ccccc1)c1ccccc1,5.0509773
5424,DOLMOI,C26 H26 N2 O5,CCOC(=O)C1=C(C)NC2=C(CCC(=O)N2C1c1ccc(OC)cc1)C(=O)c1ccccc1,6.01534877
5425,DOLMUO,C12 H4 N4 S3,S1C=CC2=C1C1=C(C=CS1)C1=NC3=NSN=C3N=C21,4.84798036
5426,DOLNAV,C20 H20 N2 O1,CCCCCCN1N=C2c3ccccc3C(=O)c3cccc1c23,5.65316524
5427,DOLQED,C17 H15 N3 O3,CCN1C(=O)C2=CC(=O)N3c4ccccc4N(CC)C3=C2C1=O,5.748132979999999
5428,DOLVIL,C36 H36 F3 O1 P1,Cc1cc(C)c(P(C2CC(C2C(=O)c2ccccc2)c2ccc(cc2)C(F)(F)F)c2c(C)cc(C)cc2C)c(C)c1,6.13317408
5429,DOLXUZ,C26 H31 N9,CC1=NN(C(=C1)C)C(N1N=C(C)C=C1C)=C1NC(C=C1)=C(N1N=C(C)C=C1C)N1N=C(C)C=C1C,4.86185817
5430,DOMCOZ,C28 H23 N1 O3,COc1ccc2N(Cc3ccccc3)c3cccc(C(=O)OCc4ccccc4)c3c2c1,5.88527836
5431,DOMDAM,C21 H17 N1 O3,COc1ccc2Nc3cccc(C(=O)OCc4ccccc4)c3c2c1,5.95711642
5432,DOMKUN,C20 H18 O2 S1,O=S(=O)(C1=CC=C2C(CCc3ccccc23)C1)c1ccccc1,6.1002483
5433,DOMNAW,C38 H34 N4 O2 S2,O=C(NC(=S)N(Cc1ccccc1)Cc1ccccc1)c1cccc(c1)C(=O)NC(=S)N(Cc1ccccc1)Cc1ccccc1,6.081744560000001
5434,DOMSUT,C13 H9 N1 O5,COC(=O)C(C=O)=CN1C(=O)c2ccccc2C1=O,6.526378589999999
5435,DOMTIK01,C19 H16 O1,Cc1ccc2ccc(C)c3C4=C(C)C(=O)C(=C4c1c23)C,4.94022696
5436,DOMZIO,C17 H17 N3 O4,CCN1C(Oc2ccccc12)=CC=C1C(=O)N(C)C(=O)N(C)C1=O,5.50323052
5437,DONBEP,C28 H14 S6,S1C2=C(SC(=C2)C2=CC3=C(S2)C2=C(S3)C=C(S2)c2ccccc2)C2=C1C=C(S2)c1ccccc1,4.97288062
5438,DONBIT,C20 H12 S3,S1C2=C(SC(=C2)c2ccccc2)C2=C1C=C(S2)c1ccccc1,5.16363243
5439,DONBOZ,C28 H4 F10 S6,Fc1c(F)c(F)c(c(F)c1F)C1=CC2=C(S1)C1=C(S2)C=C(S1)C1=CC2=C(S1)C1=C(S2)C=C(S1)c1c(F)c(F)c(F)c(F)c1F,4.80797962
5440,DONBUF,C20 H7 F5 S3,Fc1c(F)c(F)c(c(F)c1F)C1=CC2=C(S1)C1=C(S2)C=C(S1)c1ccccc1,5.22621861
5441,DONCUE,C19 H16,C1C2=CC=CC=C1C=CC(C=C2)=C1C=CC=CC=C1,5.1179173
5443,DONHOG,C16 H12 N2 O1,O=C1C=CC2(Nc3ccccc3N3C=CC=C23)C=C1,5.93779634
5444,DONJIC,C31 H20 N2 O1 S1,O=C1c2ccccc2N(c2ccccc2)c2cc(ccc12)N1c2ccccc2Sc2ccccc12,5.32009789
5445,DONKUP,C12 H8 N2 S1,N#CC(=CC1=CC=CS1)c1cccnc1,5.777793389999999
5446,DONLAW,C12 H8 N2 S1,N#CC(=CC1=CC=CS1)c1ccccn1,5.8017394
5447,DONLIE,C27 H22 N2 O2 S2,CSc1ccc(cc1)C1N2C(=O)CCSC2=NC(=C1C(=O)c1ccccc1)c1ccccc1,5.87521014
5448,DONLOK,C26 H20 N2 O2 S2,CSc1ccc(cc1)C1N2C(=O)CSC2=NC(=C1C(=O)c1ccccc1)c1ccccc1,5.54595238
5449,DONREF,C28 H31 N3 O2 S3,CCCCCCCCCCCCN1C(=O)C2=C(C3=CC=CS3)C3=NSN=C3C(=C2C1=O)C1=CC=CS1,4.94376444
5450,DONRIJ,C23 H22 N2 O1,CCOc1ccc(cc1)C1CC(=NN1c1ccccc1)c1ccccc1,5.91902048
5451,DONVOU,C34 H24 N2 S2,S(Sc1ccccc1N=Cc1cccc2ccccc12)c1ccccc1N=Cc1cccc2ccccc12,5.787861599999999
5453,DONYAJ,C38 H42 Br2 N2 O6 S2,CCCCC(CC)CN1C(=O)C(c2ccc(Br)cc12)=C1C=C2C(=CC(=C3C(=O)N(CC(CC)CCCC)c4cc(Br)ccc34)S2(=O)=O)S1(=O)=O,4.30647379
5454,DOPHOG,C12 H10 Cl1 N5 O1 S1,CN1C(=S)c2cc(nc3c(N)c(Cl)c(N)c1c23)C(N)=O,4.3603523399999995
5455,DOPJIB,C20 H24 O3,CC(=C)C1CCC(=C)C2C1C=C(C)C(=O)C1=C2C(=O)C(C)(O)C1,6.564746649999999
5461,DOPSAC,C24 H16 N2,c1ccc2c(c1)N1N(c3ccccc23)c2ccccc2c2ccccc12,6.053716830000001
5462,DOPSIM,C20 H16 N2 O4 S1,CN(C)c1cccc2c1cccc2S(=O)(=O)N1C(=O)c2ccccc2C1=O,5.47792393
5466,DOPWEM,C28 H36 I2 S3,CCCCCCC1=C(I)SC(=C1)C1=C2CCCCC2=C(S1)C1=CC(=C(I)S1)CCCCCC,5.36635724
5467,DOPWOW,C27 H19 N3 O1,COc1ccc(cc1)c1cc(nc(C2=CNc3ccccc23)c1C#N)c1ccccc1,5.86623039
5468,DOQCIX,C14 H7 Br1 O4,Oc1cc(Br)c(O)c2C(=O)c3ccccc3C(=O)c12,6.009362280000001
5470,DOQMOM,C20 H24 N2 O3 S1,CN(C(=O)N(C)c1ccccc1S(=O)C(C)(C)C)c1ccccc1C=O,6.55658323
5471,DOQNOP,C24 H18 N2 O2,CC1=CN(CC=Cc2ccc3ccc4cccc5ccc2c3c45)C(=O)NC1=O,5.45180099
5472,DOQPEF,C19 H25 N1 O3 S1,COc1ccc(NC(C2CCCCC2)C2OC(=O)C=C2)c(SC)c1,6.17045367
5473,DOQPIJ,C18 H21 N1 O3 S1,CSC1=CC(=O)C=CC1=NC(C1CCCCC1)C1OC(=O)C=C1,5.5794223899999995
5474,DOQRAF,C37 H42 N2 O4,OC(C1CCC[N+]1([O-])CCC[N+]1([O-])CCCC1C(O)(c1ccccc1)c1ccccc1)(c1ccccc1)c1ccccc1,6.8526431
5475,DOQRIM,C34 H20 O4 S4,O=Cc1ccc(cc1)C1=C(SC(S1)=C1SC(=C(S1)c1ccc(C=O)cc1)c1ccc(C=O)cc1)c1ccc(C=O)cc1,4.1905533
5476,DOQWEN01,C13 H12 N2 O3,COc1cccc(C=[NH+]c2ncccc2O)c1[O-],4.93451256
5477,DORBES,C20 H20 N2 O9,COc1ccc2C=C(NC(=O)C3=NOC4C(O)C=CC(O)C4(O)C3)C(=O)Oc2c1OC,6.07847919
5479,DORHOI,C18 H17 F1 N2 O2,FC(=O)[C-]1[n+]2ccc3ccccc3c2N(C2CCCCC2)C1=O,5.58486467
5480,DORHUO,C28 H24 Cl3 N3 O2,ClC(Cl)(Cl)C1N(C=Cc2ccccc12)C(=O)[C-]1[n+]2ccc3ccccc3c2N(C2CCCCC2)C1=O,5.37179952
5481,DORJAV,C17 H13 N1 O3,CN1CCc2cccc3c2c1cc1C(=O)C=C(O)C(=O)c31,4.66267083
5482,DORLUR,C26 H26 O6,COc1ccc(C2=Cc3cc(OC)c(OCc4ccccc4)cc3OC2)c(OC)c1OC,5.98568837
5483,DORNIJ,C10 H10 Br2 O4,CCOC1=C(Br)C(=O)C(=C(Br)C1=O)OCC,5.3089412199999995
5484,DORNOP,C18 H16 O4 S2,CCOC1=C(C(=O)C(=C(C1=O)C1=CC=CS1)OCC)C1=CC=CS1,4.547838779999999
5485,DORNUV,C18 H16 O4 S2,CCOC1=C(C(=O)C(=C(OCC)C1=O)C1=CC=CS1)C1=CC=CS1,4.449877799999999
5486,DORPAD,C22 H20 O8 S2,CCOC1=C(C(=O)C(=C(C1=O)C1=C2OCCOC2=CS1)OCC)C1=C2OCCOC2=CS1,4.75682222
5487,DORPEH,C22 H20 O8 S2,CCOC1=C(C(=O)C(=C(OCC)C1=O)C1=C2OCCOC2=CS1)C1=C2OCCOC2=CS1,5.023493800000001
5488,DORPOR,C26 H17 N3 O1,CC1(C)OC(=C(C#N)C#N)C(=C1C=Cc1c2ccccc2cc2ccccc12)C#N,4.30130364
5489,DORQIL,C11 H14 O6 P2,C=C=CP1(=O)OCC2(CO1)COP(=O)(OC2)C=C=C,6.071132110000001
5490,DORQOR,C8 H13 O3 P1,CC1(C)COP(=O)(OC1)C=C=C,5.49996514
5491,DORREK,C34 H26 N2 O1,CC1=C(C(=O)c2ccccc2)c2cc(ccc2N1c1ccccc1)N(c1ccccc1)c1ccccc1,5.91439454
5492,DORRUZ,C36 H36 N2 O10,COC(=O)C1=C(C(=O)OC)C(=CC=C2C(=O)N(c3c(C)cc(C)cc3C)C(=C2C(=O)OC)C(=O)OC)C(=O)N1c1c(C)cc(C)cc1C,4.4803545399999996
5493,DORSIN,C32 H29 N5,CC(C)c1ccc(cc1)C1C(C#N)C(=C2N=C3C=CC=CN3C2(C#N)C1c1ccc(cc1)C(C)C)C#N,5.50731222
5494,DORTAG,C27 H18 N4,Cc1ccc(cc1)c1c(C#N)c(C#N)c2N=C3C=CC=CN3c2c1c1ccc(C)cc1,5.71683989
5495,DORTOU,C25 H12 Cl2 N4,Clc1ccc(cc1)c1c(C#N)c(C#N)c2N=C3C=CC=CN3c2c1c1ccc(Cl)cc1,5.66486614
5496,DORVAI,C26 H16 N4,CC1=CC=CN2C1=Nc1c(C#N)c(C#N)c(c3ccccc3)c(c3ccccc3)c21,5.7388811
5497,DORVEM,C28 H20 N4,Cc1ccc(cc1)c1c(C#N)c(C#N)c2N=C3N(C=CC=C3C)c2c1c1ccc(C)cc1,5.741874360000001
5498,DORVIQ,C26 H14 Cl2 N4,CC1=CC=CN2C1=Nc1c(C#N)c(C#N)c(c3ccc(Cl)cc3)c(c3ccc(Cl)cc3)c21,5.570170519999999
5499,DORVOW,C30 H24 N4,CCc1ccc(cc1)c1c(C#N)c(C#N)c2N=C3N(C=CC=C3C)c2c1c1ccc(CC)cc1,5.66785939
5500,DORVUC,C32 H28 N4,CC(C)c1ccc(cc1)c1c(C#N)c(C#N)c2N=C3N(C=CC=C3C)c2c1c1ccc(cc1)C(C)C,5.7465003
5501,DORWOZ,C20 H17 N1 O2,CCOC(=O)C=C1N2c3ccccc3C=C2c2c(C)cccc12,5.56119077
5502,DORWUD,C26 H11 F6 O1 P1 S2,Fc1c(F)c2c3c(F)c(F)c(c(F)c3P(=O)(c3ccccc3)c2c(F)c1C1=CC=CS1)C1=CC=CS1,5.66677094
5503,DORXEP,C41 H26 F6 S2,CC1=C(C=C(S1)c1ccc2c(Cc3ccccc23)c1)C1=C(C2=C(C)SC(=C2)c2ccc3c(Cc4ccccc34)c2)C(F)(F)C(F)(F)C1(F)F,5.73888111
5504,DORXIS,C28 H29 Cl2 N3 O4 S1,CCN1C(=CSC21C(N(c1ccc(Cl)cc1)C(=Nc1ccc(Cl)cc1)C2(C)C(=O)OC)=C(C)C(=O)OC)C,5.8591554299999995
5505,DORXOY,C31 H31 N3 O4 S1,CCN1c2ccccc2SC21C(N(c1ccccc1)C(=Nc1ccccc1)C2(C)C(=O)OC)=C(C)C(=O)OC,6.14732399
5506,DOSBAO,C7 H14 N6 S3,CC(C)N(C(C)C)C1=NS2=NS(=N1)N=S=N2,5.966640399999999
5507,DOSBOF,C34 H23 N3,CCCCN1c2ccc3ccc4ccc(cc4c3c2c2c1ccc1ccc3ccc(cc3c21)C#N)C#N,5.633845170000001
5508,DOSBUL,C34 H23 N3,CCCCN1c2ccc3cc(C#N)c4ccccc4c3c2c2c1ccc1cc(C#N)c3ccccc3c21,5.692077530000001
5509,DOSCAS,C39 H25 N3,N#Cc1cc2ccc3N(CCCc4ccccc4)c4ccc5cc(C#N)c6ccccc6c5c4c3c2c2ccccc12,5.578061820000002
5510,DOSCEW,C36 H27 N3 O2,CCCCN1c2ccc3cc(C#N)c4ccc(OC)cc4c3c2c2c1ccc1cc(C#N)c3ccc(OC)cc3c21,5.5405101100000005
5511,DOSKIH,C10 H10 O1 S2,CSC(=S)C=C(O)c1ccccc1,5.59193963
5512,DOSKUT,C10 H9 Cl1 O1 S2,CSC(=S)C=C(O)c1ccc(Cl)cc1,5.50241417
5513,DOSLAA,C10 H9 Br1 O1 S2,CSC(=S)C=C(O)c1ccc(Br)cc1,5.43193668
5514,DOSTEK,C10 H12 S9,CSC(=S)C(SC)=C1SSC(S1)=C(SC)C(=S)SC,5.0207726599999996
5515,DOSTIQ,C18 H24 N4 O5,CCOC(=O)C1C2C(CCN2OC1(C)N=NC(N)=O)OCc1ccccc1,6.70624585
5516,DOSTOX,C22 H15 N1 S1,S1c2ccccc2N(c2ccccc2)c2ccc3ccccc3c12,5.65507004
5517,DOSYAN,C42 H38 N2 O4,CCCCCCN1C(=O)c2cccc3c2c(cc2c4cc5C(=O)N(CCCCCC)C(=O)c6cccc(c56)c4c4ccccc4c32)C1=O,5.54404759
5518,DOSYER,C39 H32 N2 O5,CCCCN1C(=O)c2cccc3c2c(cc2c4cc5C(=O)N(CCCC)C(=O)c6cccc(c56)c4c4cc(OC)ccc4c32)C1=O,5.30132204
5519,DOSYIV,C22 H31 N4 O1 P1 S2,CN1C(=S)N(C=C1P(=O)(c1ccccc1)C1=CN(C(=S)N1C)C(C)(C)C)C(C)(C)C,5.84854299
5520,DOTCIA,C34 H26 N4 O4,COC(=O)c1ccc(cc1)C(C1=CC=CN1)=C1C=CC(=N1)C1=CC=C(N1)C(c1ccc(cc1)C(=O)OC)=C1C=CC=N1,4.11953159
5521,DOTDOG,C20 H16 O3,COc1ccc2cc(C=CC(=O)c3ccccc3O)ccc2c1,5.77343956
5522,DOTDUM,C19 H14 Cl1 N1 O2,COc1ccc2cc(C=CC(=O)c3ccnc(Cl)c3)ccc2c1,5.4539779
5523,DOTFAU,C19 H15 N1 O2,COc1ccc2cc(C=CC(=O)c3ccncc3)ccc2c1,5.63574995
5524,DOTGIC,C18 H23 N1 O4,CC(C)(C)OC1=C(OC(C)(C)C)C(=O)OC(=N1)c1ccccc1,6.13317408
5525,DOTHAB10,C28 H23 Br1 O13,CC(=O)Oc1ccc(OC(C)=O)c2C(=O)c3c(OC(C)=O)c4c(OC5OC(CC45OC(C)=O)OCCBr)cc3C(=O)c12,5.96364715
5526,DOTMUU,C30 H38 O12,COc1cc2c(cc1C)C(=CC(=O)C2(C)OC1OC(COC(C)=O)C(OC(C)=O)C(OC(C)=O)C1OC(C)=O)C(C)C,5.95493951
5527,DOTNIJ,C8 H7 N1 S2,S=CN(C=S)c1ccccc1,5.990858530000001
5528,DOTSUA,C14 H24 N2 O10,OC(=O)C[NH+](CCOCCOCC[NH+](CC(O)=O)CC(=O)[O-])CC(=O)[O-],6.3261028
5530,DOTWUH,C15 H14 Br1 N1 O3,COc1ccc(N=Cc2cc(Br)ccc2O)c(OC)c1,5.99983829
5531,DOTXAO,C15 H15 N1 O4,COc1ccc([NH+]=Cc2ccc(O)cc2[O-])c(OC)c1,5.24608292
5532,DOVCIA,C13 H12 N2 S3,C1C2C=CC1C1C2S2=NSc3ccccc3S1=N2,5.97725284
5533,DOVDUO,C34 H28 O8,COC(=O)c1cc(cc(c1)c1ccc(C=Cc2ccc(cc2)c2cc(cc(c2)C(=O)OC)C(=O)OC)cc1)C(=O)OC,5.58568101
5534,DOVFUR,C20 H16 N6,CN1c2ccccc2N=C1c1cnc(cn1)C1=Nc2ccccc2N1C,5.70105728
5535,DOVPEK,C25 H21 Cl1,CC(C)=C1C=C(c2ccccc2)C2=CC=CC=CC12c1ccc(Cl)cc1,5.39220806
5536,DOVQIQ,C49 H34 Cl1 N1 O4,OC1(CC2(C(C(=O)c3ccccc3)C31C(=O)N(Cc1ccccc1)c1ccc(Cl)cc31)C(=O)c1cccc3cccc2c13)c1ccc(cc1)c1ccccc1,5.850992020000001
5537,DOVWAO,C27 H40 N4 O1,CC(C)N(Cc1cc(cc(N2N=C3C=CC=CC3=N2)c1O)C(C)(C)CC(C)(C)C)C(C)C,6.12310587
5538,DOWBAV,C20 H8 N4,N#Cc1nc2c3cccc4ccc5cccc(c2nc1C#N)c5c34,5.39574554
5539,DOWBEZ,C22 H12 N2,c1ccc2nc3c4cccc5ccc6cccc(c3nc2c1)c6c45,5.40526953
5540,DOWBOJ,C38 H30 N4,CN(C)c1ccc(cc1)c1ccc2c3nc4ccccc4nc3c3ccc(c4ccc(cc4)N(C)C)c4ccc1c2c34,4.84253808
5541,DOWBUO,C13 H13 Cl1 N4 O1,CC1=NC=CN1CC(=O)NN=Cc1ccc(Cl)cc1,5.9549395
5542,DOWCIC,C24 H14 S2,S1C(=CC=C1C1=CC=C(S1)C#Cc1ccccc1)C#Cc1ccccc1,5.12798552
5543,DOWCUQ,C36 H29 N1 O5,CCOC(=O)C1C(c2ccccc2)C2(C(c3ccc(OC)cc3)C3=C1Nc1ccccc31)C(=O)c1ccccc1C2=O,5.43873953
5544,DOWGOO,C37 H31 N1 O5,CCOC(=O)C1C(c2ccc(C)cc2)C2(C(c3ccc(OC)cc3)C3=C1Nc1ccccc31)C(=O)c1ccccc1C2=O,5.4689441599999995
5545,DOWGUU,C36 H29 N1 O5,CCOC(=O)C1C(c2ccccc2)C2(C(c3ccc(OC)cc3)C3=C1Nc1ccccc31)C(=O)c1ccccc1C2=O,5.5786060399999995
5546,DOWHAB,C36 H28 Cl1 N1 O5,CCOC(=O)C1C(c2ccc(OC)cc2)C2(C(c3ccc(Cl)cc3)C3=C1Nc1ccccc31)C(=O)c1ccccc1C2=O,5.66241711
5547,DOWHEF,C36 H28 Cl1 N1 O4,CCOC(=O)C1C(c2ccc(C)cc2)C2(C(c3ccc(Cl)cc3)C3=C1Nc1ccccc31)C(=O)c1ccccc1C2=O,5.5089449
5548,DOWHON,C17 H15 N1 O1,CCc1ccc(cc1)C=C1C(=O)Nc2ccccc12,5.993035439999998
5549,DOWHUT,C19 H13 N1 O1,O=C1Nc2ccccc2C1=Cc1ccc2ccccc2c1,5.72609175
5550,DOWPAI,C21 H14 Cl1 F1 N4 O1 S1,Fc1ccc(cc1Oc1ccccc1)C1=NNC(=S)N1N=Cc1ccc(Cl)cc1,5.834393070000001
5551,DOWPEM,C21 H14 F2 N4 O1 S1,Fc1ccc(cc1)C=NN1C(=S)NN=C1c1ccc(F)c(Oc2ccccc2)c1,5.72826867
5552,DOWPIQ,C21 H15 F1 N4 O1 S1,Fc1ccc(cc1Oc1ccccc1)C1=NNC(=S)N1N=Cc1ccccc1,5.77425591
5553,DOWPOW,C27 H19 F1 N4 O2 S1,Fc1ccc(cc1Oc1ccccc1)C1=NNC(=S)N1N=Cc1cccc(Oc2ccccc2)c1,5.748132979999999
5555,DOWSEQ,C30 H30 N4 O1,CCN(CC)c1ccc(C=NN=Cc2ccc(cc2)N(c2ccccc2)c2ccccc2)c(O)c1,5.45071253
5556,DOWSIU,C30 H23 N3 O1,Oc1ccc2ccccc2c1C=NN=Cc1ccc(cc1)N(c1ccccc1)c1ccccc1,5.2126129200000015
5557,DOWSOA,C26 H21 N3 O1,Oc1ccccc1C=NN=Cc1ccc(cc1)N(c1ccccc1)c1ccccc1,5.46241344
5558,DOWSUG,C27 H23 N3 O2,COc1cccc(C=NN=Cc2ccc(cc2)N(c2ccccc2)c2ccccc2)c1O,5.48608734
5559,DOWTOY,C30 H40 N2 O4,C1COCCN2CCOCCOCCN(CCO1)CCc1c3ccccc3c(CC2)c2ccccc12,5.20553796
5560,DOWTUE,C32 H44 N2 O4,C1CN2CCOCCOCCN(CCCc3c4ccccc4c(C1)c1ccccc31)CCOCCOCC2,5.28608366
5561,DOWVAN,C18 H11 Cl1 N4,Cc1cc(Cl)ccc1N=C(C#N)c1ccc(cc1)C(C#N)C#N,6.02759391
5562,DOXBEA,C32 H24 N6,N1C=C(C=NN=C(c2ccccc2)C(=NN=CC2=CNc3ccccc23)c2ccccc2)c2ccccc12,6.02704967
5563,DOXBID,C36 H38 N4 O9,O=C1N(C(=O)c2c(N3CCOCC3)c3C(=O)N(C(=O)c3c(N3CCOCCOCCOCCOCC3)c12)c1ccccc1)c1ccccc1,4.673283270000001
5564,DOXBIE,C34 H28 N6,CC(=NN=C(c1ccccc1)C(=NN=C(C)C1=CNc2ccccc12)c1ccccc1)C1=CNc2ccccc12,5.93017714
5565,DOXBUQ,C36 H26 N4,c1ccc(cc1)C(=NN=Cc1cccc2ccccc12)C(=NN=Cc1cccc2ccccc12)c1ccccc1,5.84446128
5566,DOXCAX,C23 H17 N3 O1,O=C(c1ccccc1)C(=NN=CC1=CNc2ccccc12)c1ccccc1,5.97181057
5567,DOXCEB,C24 H19 N3 O1,CC(=NN=C(C(=O)c1ccccc1)c1ccccc1)C1=CNc2ccccc12,6.02650545
5568,DOXCIF,C24 H19 N3 O1,CN1C=C(C=NN=C(c2ccccc2)C(=O)c2ccccc2)c2ccccc12,5.90051674
5569,DOXCOL,C25 H18 N2 O1,O=C(c1ccccc1)C(=NN=Cc1cccc2ccccc12)c1ccccc1,5.85316892
5570,DOXDAN,C14 H10 O2,O1C2=CC3=CC=CC=C(O3)C=C1C=CC=C2,4.99519396
5571,DOXPIP,C21 H18 O3 S1,Cc1ccc(cc1)S(=O)(=O)OC(=C1C=CC=CC=C1)c1ccccc1,5.639015329999999
5572,DOXQAK,C10 H6 N4 O1 S2,Oc1nc(cnc1C1=NC=CS1)C1=NC=CS1,5.808270139999999
5573,DOXQIQ,C23 H15 Cl1 O3,Clc1ccc(cc1)C(C(=O)C1C(=O)c2ccccc2C1=O)c1ccccc1,6.18541994
5574,DOXSUE,C30 H18 S2,S1C(=Cc2c3C=C(Sc4cccc(c5cccc1c25)c34)c1ccccc1)c1ccccc1,4.4504220199999995
5575,DOXSUG,C16 H12 N4 S2,CCN1C(C2=CC=CS2)C(=NC(=C1C#N)C#N)C1=CC=CS1,5.358738059999999
5576,DOXTEP,C14 H8 S2,S1C=Cc2ccc3SC=Cc4ccc1c2c34,5.138870069999999
5577,DOXTER,C16 H12 N4 S2,CCN1C(C2=CC=CS2)C(=NC(=C1C#N)C#N)C1=CSC=C1,5.50105361
5578,DOXTIV,C18 H14 N4 S1,CCN1C(C2=CC=CS2)C(=NC(=C1C#N)C#N)c1ccccc1,5.441188550000001
5579,DOXTUH,C18 H14 N4 S1,CCN1C(C2=CSC=C2)C(=NC(=C1C#N)C#N)c1ccccc1,5.34758139
5580,DOXVUK,C22 H17 N1 O6 S1,COC(=O)c1cc(cc(c1)C(=O)OC)N1c2ccccc2S(=O)(=O)c2ccccc12,5.94650397
5581,DOXWOC,C36 H32 O6,C1COc2c3ccccc3c(OCCOCCOc3c4ccccc4c(OCCO1)c1ccccc31)c1ccccc21,5.1728843
5582,DOXWUI,C40 H40 O8,C1COCCOc2c3ccccc3c(OCCOCCOCCOc3c4ccccc4c(OCCO1)c1ccccc31)c1ccccc21,5.30567586
5583,DOXXUL,C16 H11 N1 O2,O=C1N2c3ccccc3CCc3cccc(C1=O)c23,5.81561721
5584,DOXYAQ,C20 H26 O1,CC(=CC=O)C=CC=C(C)C=CC1=C(C)C=CCC1(C)C,5.12444804
5585,DOYBUO,C14 H10 I1 N3 S1,IS1=NC(=NC(=N1)c1ccccc1)c1ccccc1,5.42186847
5586,DOYCOJ,C5 H9 As3 I2,CC12C[As](I)[As](C1)[As](I)C2,5.835481529999999
5587,DOYLEK,C18 H13 N3 O1,O=C1N([N-][n+]2c(cccc12)c1ccccc1)c1ccccc1,5.5911232900000005
5588,DOYLIO,C12 H9 N3 O1,O=C1N([N-][n+]2ccccc12)c1ccccc1,5.77316745
5589,DOYLIP,C22 H26 Cl1 N4 O1 P1,CCN(CC)c1ccc(cc1)N1Cc2c(Cl)nc3ccccc3c2P1(=O)N(C)C,5.1513873
5590,DOYMAG,C20 H23 N3,CN(C)c1ccc(cc1)C(C=CC1CCCCC1)=C(C#N)C#N,5.3590101699999995
5591,DOYMEK,C20 H16 Br1 N3,CN(C)c1ccc(cc1)C(C=Cc1ccc(Br)cc1)=C(C#N)C#N,4.91791362
5592,DOYMIO,C21 H19 N3 O1,COc1ccc(cc1)C=CC(c1ccc(cc1)N(C)C)=C(C#N)C#N,5.07111372
5593,DOYNAJ,C18 H21 N3 O1,CC(CC(=O)C1=NC=CN1C)C1=C(C)N(C)c2ccccc12,6.06705041
5594,DOYNEN,C24 H25 N3 O1,CC(CC(=O)C1=NC=CN1Cc1ccccc1)C1=C(C)c2cccc(C)c2N1,5.88555047
5595,DOYRAL,C30 H24 N2,Cc1cccc(C)c1N=C1c2ccccc2c2cccc3Cc4cccc(C)c4N=C1c23,5.49180173
5599,DOYTIX,C33 H26 O2,CC12C3C4CC(=O)C=CC4=C(c4ccccc4)C1=C(c1ccccc1)C(C)(C2=O)c1ccccc31,5.94432706
5600,DOYVOC,C13 H11 N3 O1 S1,CSC1=NC=C(N2N1C=CC2=O)c1ccccc1,5.98079032
5601,DOYVOF,C32 H40 O7,CC1CC2(O)OOC(C)(C)C2=CC2=C1C(=O)C1C3C(OC(C)=O)C4(C(C)CC(=O)C(CC4=C3C)=C(C)C)C21C,6.26079548
5602,DOYVUL,C21 H22 O5,CCC(C)C=C(C)C=CC(=O)c1cc2C(=O)C(=C(O)C(=O)c2cc1O)C,5.3113902500000005
5603,DOYZIC,C18 H23 F3 N2 O2 S1,CN1C(=O)C(=C(C)CC(NS(=O)C(C)(C)C)C(F)(F)F)c2ccccc12,6.314129790000001
5604,DOZBEC,C16 H12 O4 S6,COc1cc2SC3=C(SC(S3)=C3SC4=C(OCCO4)S3)Sc2cc1OC,5.79003851
5605,DOZBIG,C16 H12 O2 S8,COc1cc2SC3=C(SC(S3)=C3SC4=C(SCCS4)S3)Sc2cc1OC,5.79684135
5606,DOZBOL,C17 H14 F2 N2 O2,COc1ccc(cc1)C1=NN=C(c2ccc(OC)cc2)C1(F)F,5.572075320000001
5607,DOZBOM,C14 H8 S8,C1CSC2=C(S1)SC(S2)=C1SC2=C(S1)Sc1ccccc1S2,5.77507225
5608,DOZBUS,C14 H10 S9,CC1=C2SC3=C(SC(S3)=C3SC4=C(SCCS4)S3)SC2=C(C)S1,5.8705842200000005
5609,DOZCED,C16 H10 O4 S6,C1COC2=C(O1)SC(S2)=C1SC2=C(S1)Sc1cc3OCCOc3cc1S2,5.81425664
5610,DOZHUV,C22 H19 P1 S4,Cc1ccc(cc1)C(=S)SP(SC(=S)c1ccc(C)cc1)c1ccccc1,5.5897627199999995
5611,DOZMAI,C24 H20 O2,CC1=CC(=O)c2c3CCc4ccc(CCc(cc3)c12)c1C(=O)C=C(C)c41,5.51520352
5612,DOZNOY,C26 H23 N3,CC(C)(C)c1cc(Nc2cccc3cccnc23)c2ncc3ccccc3c2c1,5.462685550000001
5613,DOZQIU,C29 H21 Cl2 N1 O6,COC(=O)C=C(C(=O)OC)C(C(=O)c1ccc(Cl)cc1)=C1C(=O)N(Cc2ccccc2)c2ccc(Cl)cc12,5.36798993