,ID,formula,smiles,HOMO_LUMO_gap
9812,GUMPIP,C20 H16 Cl2 N4 O2,CCOC(=O)c1cc(N=Nc2ccc(Cl)cc2)c(nc1N)c1ccc(Cl)cc1,5.63574996
9813,GUMWOC,C26 H20 Cl1 N1 O3,Cc1ccc(cc1)C(=O)C(CC1=COc2ccccc2C1=O)=CNc1ccc(Cl)cc1,5.89480235
9814,GUMZIY,C22 H20,Cc1ccc(C)c2cc3cc4c(C)ccc(C)c4cc3cc12,4.555457970000001
9815,GUMZOE,C26 H28,CCc1ccc(CC)c2cc3cc4c(CC)ccc(CC)c4cc3cc12,4.68906587
9816,GUMZUK,C30 H36,CCCc1ccc(CCC)c2cc3cc4c(CCC)ccc(CCC)c4cc3cc12,4.65151416
9817,GUNBAT,C38 H52,CCCCCc1ccc(CCCCC)c2cc3cc4c(CCCCC)ccc(CCCCC)c4cc3cc12,4.58566261
9818,GUNCEA,C30 H20 Cl2 N4 O2,Clc1cc(nc2c1ccc1c(Cl)cc(nc21)C(=O)N1CCc2ccccc12)C(=O)N1CCc2ccccc12,5.50132571
9819,GUNCUO,C18 H16 N2 S3,CC1=CC(=C(C)S1)C1=C(C2=C(C)SC(=C2)C)C2=NSN=C2C=C1,5.52772075
9820,GUNDID,C12 H7 N1 S4,N1C=C2SC(SC2=C1)=C1Sc2ccccc2S1,5.95575584
9821,GUNFOM,C13 H14 B1 Cl1 F2 N2,CCC1=C(C)C2=CC3=CC=C(Cl)N3[B-](F)(F)[N+]2=C1C,4.733692550000001
9822,GUNFUS,C16 H11 B1 Cl2 F2 N2 O1,COc1ccc(cc1)C1=C2C=CC(=[N+]2[B-](F)(F)N2C(=CC=C12)Cl)Cl,4.6912427899999996
9823,GUNGED,C12 H11 B1 Cl2 F2 N2,CCCC1=C2C=CC(=[N+]2[B-](F)(F)N2C(=CC=C12)Cl)Cl,4.76172027
9824,GUNJAC,C28 H25 N3 O5,COC(=O)C1=CC2=C(Nc3ccccc23)C=C(N1C=O)C1=CN(C(=O)OC(C)(C)C)c2ccccc12,5.510849700000001
9825,GUNJIK,C17 H13 Cl1 N4 O1,CCN1N=CC2=C1C(C=CC2=C(C#N)c1ccc(Cl)cc1)=NO,4.8409054000000005
9826,GUNJOQ,C24 H20 N4 O4 S1,COc1ccc(cc1)C(C#N)=C1C=CC(=NOS(=O)(=O)c2ccc(C)cc2)C2=C1C=NN2C,5.1179173
9827,GUNXAO,C15 H17 N3 S1,Cc1cccc(NC(=S)Nc2cc(C)cc(C)n2)c1,6.26215604
9828,GUNZEV,C42 H31 N3 O1,CC(C)(C)c1ccc(cc1)C1=NN=C(O1)c1ccc(cc1)C#CC#CC#Cc1ccc(cc1)N(c1ccccc1)c1ccccc1,4.97015948
9829,GUNZIZ,C44 H31 N3 O1,CC(C)(C)c1ccc(cc1)C1=NN=C(O1)c1ccc(cc1)C#CC#CC#CC#Cc1ccc(cc1)N(c1ccccc1)c1ccccc1,4.793285470000001
9830,GUPCEB,C44 H42 O8 S4,C1CCCOc2cccc3OCCCCCCOc4cccc(OCC1)c4C1=C(SC(=C1)C1=C4OCCOC4=CS1)C1=C(C=C(S1)C1=C4OCCOC4=CS1)c23,4.94566924
9831,GUPCIF,C20 H14 O4 S4,C1COC2=C(SC=C2O1)C1=CC=C(S1)C1=CC=C(S1)C1=C2OCCOC2=CS1,5.18104771
9832,GUPFED,C28 H23 N1 O5,COC(=O)C1(CC(=O)C2=C(c3ccccc3)c3ccccc3N2C1c1ccccc1)C(=O)OC,5.82051527
9833,GUPGUV,C33 H41 Cl1 N2 P2,CC(C)c1cccc(C(C)C)c1N1C=CN(C1=PP(Cl)c1ccccc1)c1c(cccc1C(C)C)C(C)C,5.88391779
9834,GUPHAC,C33 H50 Cl1 N3 P2,CC(C)N(C(C)C)P(Cl)P=C1N(C=CN1c1c(cccc1C(C)C)C(C)C)c1c(cccc1C(C)C)C(C)C,5.833032500000001
9835,GUPHIL,C18 H19 Cl2 N3,CN(C)c1ccc(cc1)C(N=Nc1cc(C)cc(C)c1)=C(Cl)Cl,5.2999614600000005
9836,GUPLEI,C24 H20 O1 S4,CC1=C(C)SC(S1)=C1c2ccccc2C(=C2SC(=C(CO)S2)C)c2ccccc12,5.17914292
9837,GUPLIM,C31 H24 O2 S4,CC1=C(C)SC(S1)=C1c2ccccc2C(=C2SC(=C(COC(=O)c3ccccc3)S2)C)c2ccccc12,5.28118561
9838,GUPLUY,C26 H20 O4 S4,COC(=O)C1=C(SC(S1)=C1c2ccccc2C(=C2SC(=C(C)S2)C)c2ccccc12)C(=O)OC,5.22431382
9839,GUPMAF,C24 H20 O2 S4,CC1=C(C)SC(S1)=C1c2ccccc2C(=C2SC(=C(CO)S2)CO)c2ccccc12,5.16853047
9840,GUPNUA,C31 H27 N1 O1 P2,O=P(CP(=Nc1ccccc1)(c1ccccc1)c1ccccc1)(c1ccccc1)c1ccccc1,5.861332340000001
9841,GUPPEP,C28 H29 N3 S2,CCCCN(CCCC)c1ccc(cc1)C1C2C(C3=C(SC=C3)C3=C2C=CS3)C1(C#N)C#N,5.8567064
9842,GUPPOZ,C18 H17 N1 O4 S1,COC(=O)C1=C(N2C=CC=CC2C(S1)c1ccccc1)C(=O)OC,5.835481529999999
9843,GUPRAC,C4 H9 N3 O2,NC(=[NH2+])NCCC(=O)[O-],6.3437902
9844,GUPRUG,C11 H8 N2 O2,Cc1ccc2C=C3C(=O)ON=C3Nc2c1,5.36472456
9845,GUPSAN,C12 H10 N2 O3,COc1ccc2nc3N(C)OC(=O)c3cc2c1,5.90432633
9846,GUPSER,C11 H7 F1 N2 O2,CN1OC(=O)c2cc3cc(F)ccc3nc12,6.05344472
9847,GUPSOB,C11 H7 F1 N2 O2,CN1c2ccc(F)cc2C=C2C(=O)ON=C12,5.2790087
9848,GUPVET,C30 H37 N3 O4,CCCCCCCCN(CCCN1C(=O)c2ccccc2C1=O)CCCN1C(=O)c2ccccc2C1=O,6.092629109999999
9849,GUPWOD,C52 H24,c1ccc2C#Cc3ccc(cc3)C#Cc3ccccc3C#CC#Cc3ccccc3C#Cc3ccc(cc3)C#Cc3ccccc3C#CC#Cc2c1,5.25615114
9850,GUPYUM,C36 H26 N4 O1,CN(C)c1ccc(cc1)C1=NN=C(O1)c1ccc(cc1)C#Cc1ccc(cc1)N1c2ccccc2c2ccccc12,5.3092133399999994
9851,GUQBAX,C24 H20 N4,CN(C)c1ccc2nc3N(N=C(c4ccccc4)c3cc2c1)c1ccccc1,5.16390454
9852,GUQBEB,C22 H15 N3,c1ccc(cc1)N1N=C(c2ccccc2)c2cc3ccccc3nc12,5.72718021
9853,GUQGAC,C35 H34 N4 O3,CC1C2CCCN2C2(C1C(=O)N1C(COC1=O)Cc1ccccc1)c1ccccc1c1nc3cc(C)c(C)cc3nc21,6.17317482
9854,GUQGUV,C41 H29 N3,CN1Cc2cccc(c2c2c(C1)cccc2c1c2ccccc2nc2ccccc12)c1c2ccccc2nc2ccccc12,5.38812635
9855,GUQHEF,C12 H8 N4 O2,O=C1C=C(C(=O)C=C1n1cccn1)n1cccn1,5.347309280000001
9857,GUQNEO,C34 H24 S4,S(c1ccccc1)c1ccc(Sc2ccccc2)c2c(Sc3ccccc3)ccc(Sc3ccccc3)c12,5.67275744
9859,GUQTET,C30 H39 P1 Se1,CC(C)c1cccc(C(C)C)c1P(=[Se])(c1ccccc1)c1c(cccc1C(C)C)C(C)C,6.108411719999999
9860,GUQYIA,C14 H12 N2 O2,CN(C)C1=C(C#N)C(=O)OC(=C1)c1ccccc1,5.93507519
9861,GUQZEX,C16 H14 N2 S1,CC(C)C1=CC=CC2=C(SC(=C2)C)C1=C(C#N)C#N,5.893441770000001
9862,GUQZIB,C17 H14 N2 O2,Cc1ccc(NC=C2N=C(OC2=O)c2ccccc2)cc1,5.72581964
9863,GUQZUN,C18 H18 Cl1 N1 O4,CCOC(=O)C1CCN(CC1)C1=C(Cl)C(=O)c2ccccc2C1=O,5.25996073
9864,GUQZUP01,C48 H24,c1ccc2c(c1)c1c3ccccc3c3c4ccccc4c4c5ccccc5c5c6ccccc6c6c7ccccc7c2c2c1c3c4c5c62,5.17751024
9865,GURBOK,C29 H21 N1 O2,O=C1c2ccccc2N(CCOc2c3ccccc3cc3ccccc23)c2ccccc12,5.542414900000001
9866,GURCAY,C17 H17 N3 O1 S1,Cc1ccc(OCC2=NNC(=S)N2c2ccc(C)cc2)cc1,5.41887522
9867,GURHAD,C15 H13 N3 O1 S1,CCNC(=S)NN=C1C(=O)c2cccc3cccc1c23,5.09560396
9868,GURHAE,C32 H18 O2,O=C1C2c3cccc(C#Cc4ccccc4)c3C(C1=O)c1c(cccc21)C#Cc1ccccc1,6.23684945
9869,GURQAM,C24 H16 S3,S1C(=CC2=C1C1=C(S2)C=C(S1)C=Cc1ccccc1)C=Cc1ccccc1,4.82621125
9870,GURQEQ,C26 H16 S4,S1C(=CC2=C1C1=C(S2)C2=C(S1)C=C(S2)C=Cc1ccccc1)C=Cc1ccccc1,4.65477952
9871,GURRAP,C19 H12 Br1 N1 O2,Brc1ccc(cc1)N=C1C=C(OCC#C)C(=O)c2ccccc12,5.4000993699999995
9872,GURRET,C19 H12 I1 N1 O2,Ic1ccc(cc1)N=C1C=C(OCC#C)C(=O)c2ccccc12,5.38894269
9873,GURRIX,C21 H15 N1 O3,CC(=O)c1ccc(cc1)N=C1C=C(OCC#C)C(=O)c2ccccc12,5.6779276
9874,GURROD,C17 H12 O3 S1,COc1ccc(SC2=CC(=O)C(=O)c3ccccc23)cc1,5.67711127
9875,GURSAO,C25 H19 N1 O3,CN1c2ccccc2c2cc3cc4OCOc4cc3c(OCc3ccccc3)c12,5.827862339999999
9876,GURYUQ,C32 H22 S4,S1C=CC=C1C1=CC=C(S1)C=C(c1ccccc1)C(=CC1=CC=C(S1)C1=CC=CS1)c1ccccc1,4.78240093
9877,GURZAX,C24 H18 S2,S1C=CC=C1C=C(c1ccccc1)C(=CC1=CC=CS1)c1ccccc1,5.34268334
9878,GURZIE,C36 H34 N20 O2,CCOc1cc(c2nc(N)nc(N)n2)c2cc(ccc2c1c1c(OCC)cc(c2nc(N)nc(N)n2)c2cc(ccc12)c1nc(N)nc(N)n1)c1nc(N)nc(N)n1,5.6011915
9879,GUSFOS,C19 H13 N1 O2,O=C1C(=CC(=Nc2ccccc2)c2ccccc12)OCC#C,5.60881069
9880,GUSFUY,C19 H12 F1 N1 O2,Fc1ccc(cc1)N=C1C=C(OCC#C)C(=O)c2ccccc12,5.516564089999999
9881,GUSHEI,C18 H15 N1 O3,COc1cccc(c1)C1=C(Cc2ccccc2)C(=O)NC1=O,6.03739
9882,GUSJIO,C30 H33 Br1 N2 O3,CN(C)c1ccc(cc1)C(C1CC(CCC1=O)OC(=O)c1ccc(Br)cc1)c1ccc(cc1)N(C)C,5.9201089300000005
9883,GUSJUA,C26 H20 S2,S(c1ccccc1)C(c1ccccc1)=C(Sc1ccccc1)c1ccccc1,5.69398232
9884,GUSKEL,C22 H10 N4,c1nc2ccc3c4ccc5ncnc6ccc(c7ccc(n1)c2c37)c4c56,4.69505238
9885,GUSPAN,C29 H21 Br1 N4 O3,Oc1ccc2N=C3C(=C(Br)C(=O)c4ccccc34)Oc2c1CN(Cc1ccccn1)Cc1ccccn1,4.90240313
9889,GUSTOF,C40 H41 N1,CCCCCCCCCCCCN1c2cc3cc4ccccc4cc3cc2c2cc3cc4ccccc4cc3cc12,4.29096331
9890,GUSWUM,C14 H13 N1 O2,C[NH+]=C(c1ccccc1O)c1ccccc1[O-],5.41778676
9891,GUSXAT,C15 H15 N1 O3,C[NH+]=C(c1ccccc1O)c1ccc(OC)cc1[O-],5.683369879999999
9892,GUSXIE,C48 H60 N5 P1,CC(C)c1cccc(C(C)C)c1N1C=CN(C1=NP=C1N(C=CN1c1c(C)cc(C)cc1C)c1c(C)cc(C)cc1C)c1c(cccc1C(C)C)C(C)C,4.97315274
9894,GUTDIL,C27 H33 N1 O4,CC1(C)C2CCC1(C)C(=O)C2=C(O)c1cccc(n1)C(O)=C1C2CCC(C)(C1=O)C2(C)C,6.371001580000001
9895,GUTJIO,C10 H6 Br4 P2,BrP(Br)c1cccc2cccc(P(Br)Br)c12,5.80881437
9896,GUTMAK,C10 H13 N3 S1,CN(C)C(=S)NN=Cc1ccccc1,5.98650471
9897,GUTQER,C23 H25 N1 O5 S1,C1COCCOc2ccc(C=CC3=Nc4ccccc4S3)cc2OCCOCCO1,5.85289681
9899,GUTVOJ,C29 H40 N2 O9,COC1CC(C)CC2=C(OC)C(=O)C=C(NC(=O)C(=CC=CC(OC)C(OC(N)=O)C(=CC(C)C1O)C)C)C2=O,5.4996930299999995
9900,GUTWEA,C36 H52 N4 O10,CCOC(=O)N1CCC(CC1)NC1=C2CC(C)CC(OC)C(O)C(C)C=C(C)C(OC(N)=O)C(OC)C=CC=C(C)C(=O)NC(=CC1=O)C2=O,5.16853047
9901,GUTWUO,C20 H24 N2 O3,CCN(CC)C(=O)C1=Cc2cc3CCCN4CCCc(c2OC1=O)c34,5.6904448400000005
9902,GUTXAV,C26 H34 N2 O3 S3,O=C1Oc2c3CCCN4CCCc(cc2C=C1C(=O)N1CCCSCCSCCSCCC1)c34,5.698608259999999
9903,GUTXEZ,C36 H41 N3 O4 S1,CCCCCCCCOc1ccc(cc1)C(=O)Oc1ccc(C=NC2=CC=C(S2)N=Nc2ccc(CCCC)cc2)c(O)c1,4.78865954
9904,GUVBIK,C17 H14 N4,N1N=Cc2ccccc2C1=NN=CC=Cc1ccccc1,5.4303040000000005
9905,GUVBUU,C20 H24 O7 S1,CS(=O)CC(C)(O)C1OC(=O)C=C2C3(C)CC=CC4(C)C3C(OC4=O)C3OC123,6.366103539999999
9906,GUVCAB,C25 H17 Br1 N2 O4,Brc1ccc(cc1)C(=O)ON1C(=O)C(=NC(=Cc2ccccc2)C1=O)Cc1ccccc1,5.706499559999999
9907,GUVCIM,C52 H32 N4,c1ccc(cc1)c1nc(nc(n1)c1ccccc1N1c2ccccc2c2cc3c4ccccc4C4(c5ccccc5c5ccccc45)c3cc12)c1ccccc1,5.39846668
9908,GUVCOS,C52 H32 N4,c1ccc(cc1)c1nc(nc(n1)c1ccccc1N1c2ccccc2c2ccc3c(c4ccccc4C43c3ccccc3c3ccccc43)c12)c1ccccc1,5.446358719999998
9909,GUVFIP,C23 H15 N3 O1,O=C(c1ccccc1)C(=Cc1ccccc1)N1C=CC=CC1=C(C#N)C#N,5.019412089999999
9910,GUVFOV,C24 H17 N3 O1,Cc1ccc(cc1)C=C(N1C=CC=CC1=C(C#N)C#N)C(=O)c1ccccc1,4.997370859999999
9911,GUVFUB,C24 H17 N3 O2,COc1ccc(cc1)C=C(N1C=CC=CC1=C(C#N)C#N)C(=O)c1ccccc1,5.07437909
9912,GUVGAI,C23 H14 Cl1 N3 O1,Clc1ccc(cc1)C=C(N1C=CC=CC1=C(C#N)C#N)C(=O)c1ccccc1,5.003901600000001
9913,GUVJEO,C24 H19 N1 O1 S1,Oc1ccc2ccccc2c1C=Nc1ccccc1SCc1ccccc1,5.51221027
9914,GUVRIB,C20 H21 N7 O1,CC1COCCN1c1cc(C2=CC=NN2C)c2ccnc(C3=CC=NN3)c2n1,5.65751906
9915,GUVVAW,C17 H17 N3 O3 S1,COC(=O)C=C1SC(=NN=C2CCCC2)N(C1=O)c1ccccc1,6.12691545
9916,GUVWIF,C9 H9 N3 O2 S1,NC(=S)NN=Cc1ccc(cc1)C(O)=O,5.52636019
9917,GUVZOP,C30 H30 O4,Cc1ccc2OC3(OC(=O)c4ccccc34)C(=C3C=C(C(=O)C(=C3)C(C)(C)C)C(C)(C)C)c2c1,4.736685789999999
9918,GUVZUU,C29 H26 B1 F2 N3,CN(C)c1ccc(cc1)[N+]1=C(C=C(N(c2ccccc2)[B-]1(F)F)c1ccccc1)c1ccccc1,5.4931623
9919,GUWBEH,C28 H23 B1 F2 N2 O1,COc1ccc(cc1)[N+]1=C(C=C(N(c2ccccc2)[B-]1(F)F)c1ccccc1)c1ccccc1,6.0471861
9920,GUWBOP,C12 H15 N1 O3 S2,COc1ccc(NC(=O)C(=O)C(SC)SC)cc1,6.33426622
9921,GUWPOD01,C38 H28 O2 P2,O=P(c1ccccc1)(c1ccccc1)c1c2ccccc2c(c2ccccc12)P(=O)(c1ccccc1)c1ccccc1,5.13506048
9922,GUWROG,C21 H19 Cl1 O2,CCCCC1=C(C(=O)c2ccc(Cl)cc2)c2ccccc2C1=CO,5.79548079
9923,GUWTUQ,C23 H21 Br1 O1,Cc1ccc(cc1)C=C1CCCC2=C1OC(=C2Br)c1ccc(C)cc1,5.62568174
9924,GUXDOV,C21 H16 N2 O2,O=C1Oc2ccccc2C=C1c1ccc(NCc2ccncc2)cc1,5.45506636
9925,GUXFAJ,C21 H16 N2 O2,O=C1Oc2cc(NCc3ccccn3)ccc2C=C1c1ccccc1,5.79929038
9926,GUXJEP,C44 H36 N2,Cc1cccc(C)c1N=C(C1c2ccccc2c2ccccc12)C(=Nc1c(C)cccc1C)C1c2ccccc2c2ccccc12,6.39739662
9927,GUXJEQ,C30 H25 N1 O3,COc1ccc(cc1)N=C(C)c1ccc2OCOc2c1C(=Cc1ccccc1)c1ccccc1,5.998205609999999
9928,GUXJOA,C31 H27 N1 O1,COc1ccc(cc1)N=C1CCCc2cccc(C(=Cc3ccccc3)c3ccccc3)c12,6.11358188
9929,GUXKAN,C30 H27 N1 O2,COc1ccc(cc1)N=C(C)c1ccc(OC)cc1C(=Cc1ccccc1)c1ccccc1,5.998205609999999
9930,GUXKER,C33 H33 N1 O1,COc1ccc(cc1)N=C(C)c1ccc(cc1C(=Cc1ccccc1)c1ccccc1)C(C)(C)C,6.03739
9931,GUXKOB,C29 H24 F1 N1 O1,COc1ccc(cc1)N=C(C)c1cccc(F)c1C(=Cc1ccccc1)c1ccccc1,6.045281299999999
9932,GUXKUH,C30 H24 N2 O1,COc1ccc(cc1)N=C(C)c1cccc(C#N)c1C(=Cc1ccccc1)c1ccccc1,5.98514415
9933,GUXYOP,C19 H21 Br1 N2 O3,COC(=O)c1ccc(cc1)N=Nc1ccc(OCCCCCBr)cc1,5.9402453600000005
9934,GUXYUW,C40 H36 N6,CN1C2CCCCC2N(C)c2c(C#N)c(N(c3ccccc3)c3ccccc3)c(N(c3ccccc3)c3ccccc3)c(C#N)c12,5.185129420000001
9935,GUXZAD,C40 H36 N6,CN1C2CCCCC2N(C)c2c(C#N)c(N(c3ccccc3)c3ccccc3)c(N(c3ccccc3)c3ccccc3)c(C#N)c12,5.27166163
9936,GUYDEM,C36 H21 N1 O2 S3,O=C1c2ccccc2C(=O)C1=CC1=CC2=C(S1)C1=C(S2)C=C(S1)c1ccc(cc1)N(c1ccccc1)c1ccccc1,4.295045010000001
9937,GUYDIQ,C40 H25 N1 O2 S3,O=C1c2ccccc2C(=O)C1=CC1=CC=C(S1)C1=CC=C(S1)C1=CC=C(S1)c1ccc(cc1)N(c1ccccc1)c1ccccc1,4.24415972
9938,GUYDOW,C32 H21 N1 O2 S1,O=C1c2ccccc2C(=O)C1=CC1=CC=C(S1)c1ccc(cc1)N(c1ccccc1)c1ccccc1,4.46185081
9939,GUYFUE,C25 H20 N2 O2 S1,CCN1c2ccccc2Sc2cc(ccc12)C=C(C#N)c1ccc(cc1)C(=O)OC,4.695324490000001
9940,GUYGAL,C19 H19 N1 O4,COC(CN1C(=O)c2ccccc2C1=O)Cc1ccc(OC)cc1,6.145963429999999
9941,GUYGIT,C37 H41 N5 O3,CCNc1cc2Oc3cc(NCC)c(C)cc3C3(N(N=Cc4ccc(cc4O)N(CC)CC)C(=O)c4ccccc34)c2cc1C,5.703778420000001
9942,GUYPAR,C18 H17 N3 O2,CN(O)C(c1ccccc1)=C1C(=NN(c2ccccc2)C1=O)C,5.71166972
9943,GUYPAS,C36 H22,c1ccc(cc1)C1=C2c3ccc4ccccc4c3C(=C2c2ccc3ccccc3c12)c1ccccc1,4.22701655
9944,GUYPEW,C36 H22,c1ccc(cc1)C1=C2c3cc4ccccc4cc3C(=C2c2cc3ccccc3cc12)c1ccccc1,4.67682075
9945,GUYSUQ,C48 H24,c1cc2cccc3c2c(c1)C1=C3C2=C(c3cccc4cccc2c34)C2=C(c3cccc4cccc2c34)C2=C1c1cccc3cccc2c13,4.3315082700000005
9946,GUYVEC,C40 H26 N2 O2,O=C1c2cccc(N=C(c3ccccc3)c3ccccc3)c2C(=O)c2c(cccc12)N=C(c1ccccc1)c1ccccc1,5.86704673
9947,GUYVIG,C36 H26 N2,c1ccc(cc1)C(=Nc1cccc2cccc(N=C(c3ccccc3)c3ccccc3)c12)c1ccccc1,5.842284370000001
9948,GUYVUS,C40 H28 N2,c1ccc(cc1)C(=Nc1cccc2cc3cccc(N=C(c4ccccc4)c4ccccc4)c3cc12)c1ccccc1,5.17397276
9949,GUZDIP,C8 H8 S3,CC1=C2CSC(=S)C2=C(C)S1,6.002287320000001
9950,GUZDIQ,C15 H16 N4 O4 S2,COC(=O)C1=C(C(=O)OC)C(N=C2NCCCN12)=C(C#N)C(=S)SC,5.07546754
9951,GUZHUG,C37 H39 N1 O4,COC(=O)C1=Cc2c(C#Cc3ccc(cc3)C(C)(C)C)c(OC)c(OC)c(C#Cc3ccc(cc3)C(C)(C)C)c2N1C,5.35764961
9952,GUZJES,C29 H21 F2 N1 O4,COC(=O)C1=Cc2c(C#Cc3ccc(F)cc3)c(OC)c(OC)c(C#Cc3ccc(F)cc3)c2N1C,5.3794187099999995
9953,GUZJOC,C14 H13 F1 O1,Fc1ccc2C(=O)C3=C(CCCCC3)c2c1,6.130725050000001
9954,GUZJUI,C14 H12 O3,O=C1C2=C(CCCC2)c2cc3OCOc3cc12,5.6700363
9955,GUZKAP,C14 H11 F3 O1,FC(F)(F)c1ccc2C(=O)C3=C(CCCC3)c2c1,6.11657513
9956,GUZKUI,C17 H12 N4,c1ccc(cc1)N=C1C=CC2=NN3C=CC=CC3=NC2=C1,4.63573156
9957,GUZLAP,C18 H14 N4,Cc1ccc(cc1)N=C1C=CC2=NN3C=CC=CC3=NC2=C1,4.5992683
9958,GUZLUK,C14 H13 N5 S1,CCs1nc(nc(n1)c1ccccn1)c1ccccn1,6.257257989999999
9959,GUZSOL01,C22 H24 N4 O1 S1,O=C1N(Cc2ccccc2)c2ccccc2C1=NNC(=S)NC1CCCCC1,5.32363537
9960,GUZSUR,C18 H18 N4 O1 S1,CCNC(=S)NN=C1C(=O)N(Cc2ccccc2)c2ccccc12,5.3796908299999995
9961,GUZTAY,C16 H14 N4 O1 S1,NC(=S)NN=C1C(=O)N(Cc2ccccc2)c2ccccc12,5.3282613
9962,GUZXOP,C9 H7 N3 O2 S1,NC(=S)NN1C(=O)c2ccccc2C1=O,4.96526143
9963,GUZXUV,C34 H32 O2,CC(C)(C)c1ccc(cc1)c1cc2C(=O)c3ccccc3C(=O)c2cc1c1ccc(cc1)C(C)(C)C,5.57534068
9964,GUZYUX,C31 H32 N4,CC(C)(C)c1ccc(C=CC2=NC(=C(N=C(C2)C=Cc2ccc(cc2)C(C)(C)C)C#N)C#N)cc1,5.3600986299999995
9965,HABCUJ,C31 H25 N1 O3,COc1ccc(cc1)C(=O)C1=C(c2ccc(OC)cc2)c2ccc3N(C)c4ccccc4c3c2C1,5.70486688
9966,HABDEW,C12 H17 N3 O2 S1,CCNC(=S)NN=Cc1cccc(OCC)c1O,5.9135782
9967,HABDIA,C10 H11 Br2 N3 O1 S1,CCNC(=S)NN=Cc1cc(Br)cc(Br)c1O,5.702145740000001
9968,HABFEY,C14 H19 N3 O2 S1,CCNC(=S)NN=Cc1cc(CC=C)cc(OC)c1O,5.93561942
9969,HABITD,C20 H26 O3,CC(C)C1=C(O)C(=O)C2(C)C3CCCC(C)(C)C3=CC=C2C1=O,5.87874762
9970,HABJAW,C11 H4 O2 S5,O=C1OC2(SC3=C(SC(=S)S3)S2)c2ccccc12,5.8311277
9971,HABJUQ,C26 H20 N2 O1 S1,Cc1ccc(cc1)N1C2CC(C(C#N)c3ccccc3)(C(=O)c3ccccc23)C1=S,5.72881289
9972,HABPIN,C30 H50 N12,CN(C)C(=Nc1c(N=C(N(C)C)N(C)C)c(C#C)c(N=C(N(C)C)N(C)C)c(N=C(N(C)C)N(C)C)c1C#C)N(C)C,5.60853857
9973,HABRUB,C48 H38 N2 O4,CC(=O)c1ccc(cc1)c1cccc(c2ccc(cc2)C(C)=O)c1C1=NCCN=C1c1c(cccc1c1ccc(cc1)C(C)=O)c1ccc(cc1)C(C)=O,6.42025418
9974,HABSIM,C21 H14 O1,O=C1c2ccccc2C(=Cc2ccccc2)c2ccccc12,5.924734860000001
9975,HABTEL,C30 H32 O2 S2,CCCCCCC1=Cc2cc3C(=O)c4cc5SC(=Cc5cc4C(=O)c3cc2S1)CCCCCC,5.768269399999999
9976,HABVAJ,C24 H17 N3 O1,Cc1ccc2c(ccc(O)c2n1)N=Nc1ccc2cc3ccccc3cc2c1,4.94131541
9977,HABVEN,C16 H13 N3 O1,Cc1ccc2c(ccc(O)c2n1)N=Nc1ccccc1,5.6493556499999995
9978,HABVIR,C20 H15 N3 O1,Cc1ccc2c(ccc(O)c2n1)N=Nc1cccc2ccccc12,5.19900723
9979,HABYER,C21 H12 O2,OC12C3=CC(=O)C4=C1c1c(C4)ccc4Cc5ccc(C3)c2c5c14,5.54513604
9980,HACFAU,C38 H38 N2 O4,CC(C)c1cccc(C(C)C)c1N1C(=O)c2ccc3C(=O)N(C(=O)c4ccc(C1=O)c2c34)c1c(cccc1C(C)C)C(C)C,5.2338378
9981,HACGOJ,C26 H25 N3 O2,CN(C)c1ccc(cc1)C(=Cc1ccccc1)C(=O)NN1Cc2ccccc2CC1=O,6.0605196800000005
9982,HACGUN01,C20 H28 O3,CC(C)C1=C(O)C(=O)C2=C(CCC3C(C)(C)CCCC23C)C1=O,6.252904169999999
9983,HACLII,C16 H14 Cl1 N3 O2 S1,CN1c2ccccc2C(CS1(=O)=O)=NN=Cc1ccc(Cl)cc1,5.85507372
9984,HACMEE,C25 H26 O2,C1CCCCOc2cc3ccc4cc(OCCCC1)cc1ccc(c2)c3c41,5.65643061
9985,HACNAQ,C40 H30 O4,OC(C(=O)c1ccccc1)(c1ccccc1)c1ccc2CCc3ccc(OC(C(=O)c4ccccc4)c4ccccc4)c1c23,5.98323934
9986,HACNEG,C52 H40 S1,Cc1ccc(cc1)C1=C(c2ccc(C)cc2)c2ccc3ccccc3c2C(S1)=CC=C1c2ccccc2C(=C1c1ccc(C)cc1)c1ccc(C)cc1,4.58212513
9987,HACNOR,C18 H18 N4 O2,CN1C(O)C(=Nc2ccccc12)C1=Nc2ccccc2N(C)C1O,5.3734322
9988,HACNUX,C20 H22 N4 O2,COC1N(C)c2ccccc2N=C1C1=Nc2ccccc2N(C)C1OC,5.40635798
9989,HACPAF,C22 H26 N4 O2,CCOC1N(C)c2ccccc2N=C1C1=Nc2ccccc2N(C)C1OCC,5.41669831
9990,HACPEJ,C26 H34 N4 O4,CCOCCOC1N(C)c2ccccc2N=C1C1=Nc2ccccc2N(C)C1OCCOCC,5.39329652
9991,HACQEJ,C23 H21 N5 O4,O=C(NC=NOCc1ccccc1)c1cccc(n1)C(=O)NC=NOCc1ccccc1,6.34351808
9992,HACRIM,C22 H26 O4,COC(=O)C1=C(C(=O)OC)C2=C(C)C=C(C)C=C(C)C2=C(C)C(=C1C)C,5.84446128
9993,HACTIO,C13 H13 N1 O4,CCOC(=O)C(=Cc1ccc(OC)c(O)c1)C#N,6.02296797
9994,HACYOC,C30 H25 Cl1 N4 O3,Cc1ccc(cc1)N1N=C(C)C(CC=CC=NN2C(=O)c3ccccc3C2=O)(Cc2ccc(Cl)cc2)C1=O,5.55438792
9995,HACYUI,C37 H32 N4 O3,Cc1ccc(cc1)N1N=C(C)C(Cc2ccccc2)(C(Cc2ccccc2)C=CC=NN2C(=O)c3ccccc3C2=O)C1=O,5.66404979
9996,HACZOB,C25 H33 Cl2 N1 O1,CC(C)(C)c1cc(c(N=Cc2cc(Cl)cc(Cl)c2O)c(c1)C(C)(C)C)C(C)(C)C,6.23521677
9997,HADCIY,C33 H27 N1 O1,COc1ccc(cc1)N(c1ccccc1)c1ccc(cc1)C=C(c1ccccc1)c1ccccc1,5.58214353
9998,HADDAU,C29 H23 N1 O1 S1,O=C1N(Cc2ccccc2)c2ccccc2C1=C(SCc1ccccc1)c1ccccc1,5.88881584
9999,HADDEY,C22 H15 Cl1 F1 N1 O1,Fc1ccc2N(Cc3ccccc3)C(=O)C(=C(Cl)c3ccccc3)c2c1,5.7780655
10000,HADGAV,C17 H17 N3,Cc1ccc(cc1)N1C2CCC1CC(C2)=C(C#N)C#N,5.86595827
10001,HADGEY,C30 H20 N6,c1ccc(cc1)c1nnc(nc1c1ccccc1)c1nnc(c2ccccc2)c(n1)c1ccccc1,6.23113506
10002,HADGEZ,C18 H19 N3,Cc1cc(C)cc(c1)N1C2CCC1CC(C2)=C(C#N)C#N,5.9530347
10003,HADGID,C16 H14 F1 N3,Fc1ccc(cc1)N1C2CCC1CC(C2)=C(C#N)C#N,5.9568443
10004,HADGOJ,C18 H20 N2 O2,COC(=O)C(C#N)=C1CC2CCC(C1)N2c1ccc(C)cc1,5.9331704
10005,HADGUP,C19 H22 N2 O2,COC(=O)C(C#N)=C1CC2CCC(C1)N2c1cc(C)cc(C)c1,5.82813445
10006,HADHAW,C15 H15 N3,Cc1ccc(cc1)N1CCC(CC1)=C(C#N)C#N,5.8743938
10007,HADHEA,C16 H17 N3,Cc1cc(C)cc(c1)N1CCC(CC1)=C(C#N)C#N,5.742690700000001
10008,HADHIE,C14 H12 F1 N3,Fc1ccc(cc1)N1CCC(CC1)=C(C#N)C#N,5.98759317
10009,HADHOK,C15 H16 N2 O2,COC(=O)C(C#N)=C1CCN(CC1)c1ccccc1,5.8899042900000005
10010,HADHUQ,C16 H18 N2 O2,COC(=O)C(C#N)=C1CCN(CC1)c1ccc(C)cc1,6.21099864
10011,HADLED,C21 H14 Cl1 N3 O2,Clc1ccc(cc1)N1C(Nc2ccccc2C1=O)=CC(=O)c1ccncc1,5.79330388
10012,HADNUX,C16 H12 N2,CN1c2ccccc2C=C2c3ccccc3N=C12,5.39955514
10013,HADPAF,C22 H16 N2,C(N1c2ccccc2C=C2c3ccccc3N=C12)c1ccccc1,5.336968949999999
10014,HADPEJ,C15 H10 Br2 N2,Nc1ccccc1c1cnc2c(Br)cc(Br)cc2c1,5.6406480000000006
10015,HADPIN,C16 H12 Br2 N2,CNc1ccccc1c1cnc2c(Br)cc(Br)cc2c1,5.528809219999999
10016,HADPOT,C16 H11 Br1 N2,CN1c2ccccc2C=C2c3cc(Br)ccc3N=C12,5.28145772
10017,HADWEQ,C15 H19 N3 O1,CN(C)c1cccc2ccc(C=NO)c(N(C)C)c12,5.76092233
10018,HADWOA,C22 H20 Br1 Cl1 O6,CCOC(=O)C1(Oc2ccc(Cl)cc2C1CC(=O)c1ccc(Br)cc1)C(=O)OCC,6.151949930000001
10019,HADXAN,C19 H16 F1 N5 O2,CCOC1=NN2C(=NC(=C2c2ccc(F)cc2)c2ccc(OC)cc2)N=N1,5.265675120000001
10020,HADYUG,C19 H19 N1 O4,CN1c2ccccc2C(=O)C2=C1C(O)(CC=C(C)C)C(=O)C=C2O,5.90895227
10021,HADZET,C28 H22 N8,C1=CN(N=C1)C(N1C=CC=N1)c1cccc2cc3cccc(C(N4C=CC=N4)N4C=CC=N4)c3cc12,5.50186994
10022,HAFHAY,C21 H16 Cl1 N3 O6 S5,CCN1C2=C(SSC2=O)SC(=NC(=O)Nc2ccc(Cl)cc2)C1=C1SC(=C(S1)C(=O)OC)C(=O)OC,5.436018389999999
10023,HAFKII,C26 H16 S4,S1C=CC=C1C1=CC=C(S1)c1cccc2cccc(C3=CC=C(S3)C3=CC=CS3)c12,5.51792466
10025,HAFREM,C22 H12 F3 N1 S1,FC(F)(F)c1ccc2SC3=Nc4ccccc4C3=C(c3ccccc3)c2c1,5.3206421200000005
10026,HAFRIQ,C22 H12 F3 N1 S1,FC(F)(F)c1ccc2c(SC3=Nc4ccccc4C3=C2c2ccccc2)c1,5.21914365
10027,HAFROW,C21 H12 Cl1 N1 S1,Clc1ccc2SC3=Nc4ccccc4C3=C(c3ccccc3)c2c1,5.230028209999999
10028,HAFRUC,C21 H12 Cl1 N1 S1,Clc1ccc2c(SC3=Nc4ccccc4C3=C2c2ccccc2)c1,5.41751465
10029,HAFSAJ,C22 H15 N1 O1 S1,COc1ccc2c(SC3=Nc4ccccc4C3=C2c2ccccc2)c1,5.422140580000001
10030,HAFTAM,C38 H28 N2 O2 S1,Oc1c(C=NCCSCCN=Cc2cc3ccc4cccc5ccc(c2O)c3c45)cc2ccc3cccc4ccc1c2c34,5.68064874
10031,HAFVIV01,C28 H24 N2 O4 S4,CCCCN1C(=O)C2=C(C=C(S2)C2=CC=C(S2)C2=CC=C(S2)C2=CC3=C(S2)C(=O)N(CCCC)C3=O)C1=O,4.677637089999999
10032,HAFWIX,C25 H18 N2,C#Cc1ccc(cn1)c1ccc(cc1)N(c1ccccc1)c1ccccc1,5.87357746
10033,HAGFUR,C18 H13 N3 O3,CC(C)Oc1ccc2nc3C(=O)c4cccnc4C(=O)c3nc2c1,5.9312656
10034,HAGGAY,C17 H11 N3 O3,CCOc1ccc2nc3C(=O)c4cccnc4C(=O)c3nc2c1,5.996845029999999
10035,HAGGIG,C15 H9 N3 O2,CC1=CN2C(=NC3=C2C(=O)C(=O)c2cccnc32)C=C1,5.4697605099999995
10036,HAGKUV,C13 H7 Br1 O3 S2,Brc1ccc(cc1)C(=O)C=C1SC(=C(S1)C=O)C=O,5.22730707
10037,HAGMEK,C15 H12 N4 O1,CN1C=CN(CC(=O)c2ccccc2)C1=C(C#N)C#N,5.64853931
10038,HAGMUA,C12 H12 N2 O1 S1,CN1C=CN(CC(=O)c2ccccc2)C1=S,5.39819456
10039,HAGNAE,C16 H8 F6 N4 S2,FC(F)(F)c1ccc(cc1)C1=NSN=C(N=S=N1)c1ccc(cc1)C(F)(F)F,5.40418107