,ID,formula,smiles,HOMO_LUMO_gap
9349,GITLUR,C11 H9 N5 O2 S1,NN1C(=S)NN=C1CN1C(=O)c2ccccc2C1=O,5.12308747
9350,GITMAZ,C39 H26 N2,CN1c2ccccc2C(c2ccccc12)C1=C(c2cccc3cccc1c23)c1c2ccccc2nc2ccccc12,4.710834980000001
9351,GITMEC,C31 H26 F6 N4 S2,CCCCCC1=C(C=C(S1)C=C(C#N)C#N)C1=C(C2=C(CCCCC)SC(=C2)C=C(C#N)C#N)C(F)(F)C(F)(F)C1(F)F,5.797929810000001
9352,GITMIH,C40 H30 N2,CN1c2ccccc2C(c2ccccc12)C1=C(C2c3ccccc3N(C)c3ccccc23)c2cccc3cccc1c23,5.198735109999999
9353,GITNEE,C25 H37 N1 O2,CC(C)CNC1=CC(=O)C(=CC1=O)CC1(C)C(C)CCC2(C)C1CCC=C2C,5.34404391
9354,GITNII,C26 H39 N1 O2,CCC(C)CNC1=CC(=O)C(=CC1=O)CC1(C)C(C)CCC2(C)C1CCC=C2C,5.36880627
9355,GITPEF,C14 H10 O4 S4,COC(=O)C1=C(SC(S1)=C1Sc2ccccc2S1)C(=O)OC,5.476291239999999
9356,GITPOP,C12 H10 O4 S6,COC(=O)C1=C(SC(S1)=C1SC2=C(SCCS2)S1)C(=O)OC,4.6621266
9357,GITPUV,C13 H12 O4 S6,COC(=O)C1=C(SC(S1)=C1SC2=C(SCCCS2)S1)C(=O)OC,5.18458519
9358,GITTEK,C20 H29 N1 O2,CCCCCCCCCCCCN1C(=O)C(=O)c2ccccc12,6.10242521
9359,GITVAJ,C22 H17 N1 O3,CCOC(=O)C1=Cc2ccccc2N2C1=CC(=C2c1ccccc1)C=O,5.83548152
9360,GITVEN,C19 H15 N1 O2,CC1=CC(=C(N1c1ccccc1C=O)c1ccccc1)C=O,6.037117879999999
9361,GITVIO,C13 H16 O2,CC1=C(C)CC2C(C1)C(=O)C=C(C)C2=O,6.222427420000001
9362,GITWEO,C19 H12 N4 O1 S1,O1c2ccccc2N(c2ccc(cc2)C2=NN=NS2)c2ccccc12,4.80226523
9363,GITWUC,C25 H21 N7 O5,CC(=O)C(=NNc1ccc(cc1)C(=O)Nc1ccc(cc1)C(N)=O)C(=O)Nc1ccc2NC(=O)Nc2c1,5.228395529999999
9364,GIVCIA,C26 H24 Cl1 N1 O8,CCOC(=O)C1NC(CC(=O)OC)(C(=O)OC)C2(C1c1ccc(Cl)cc1)C(=O)c1ccccc1C2=O,6.33344987
9365,GIVLIH,C11 H6 Cl2 I1 N3 O1,Clc1nc(Cl)c(C=O)c(Nc2ccc(I)cc2)n1,5.792759650000001
9366,GIVLUU,C16 H11 N3,N#Cc1ccc(cc1)C(C1=CC=CN1)=C1C=CC=N1,5.11437982
9367,GIVQAE,C46 H39 N5 O1,CN1CC2(C(c3ccccc3)C(=NN2c2ccccc2)c2ccccc2)C(=O)C2(C1)C(c1ccccc1)C(=NN2c1ccccc1)c1ccccc1,5.5293534399999995
9368,GIVQEI,C48 H43 N5 O3,COc1ccc(cc1)C1C(=NN(c2ccccc2)C21CN(C)CC1(C(c3ccc(OC)cc3)C(=NN1c1ccccc1)c1ccccc1)C2=O)c1ccccc1,5.55928596
9369,GIVZUJ,C36 H20 Cl2,Clc1cc2c(cc1Cl)c(c1ccccc1)c1c3cccc4ccc5cccc(c5c34)c1c2c1ccccc1,5.54976198
9370,GIWBAS,C36 H20 Br2,Brc1cc2c(cc1Br)c(c1ccccc1)c1c3cccc4ccc5cccc(c5c34)c1c2c1ccccc1,5.5108497
9371,GIWBIA,C14 H14 Br1 N3,CN(C)c1ccc(cc1)N=Nc1ccc(Br)cc1,5.327444969999999
9372,GIWBOD,C11 H11 N1 O1 S8,CSC1=C(SCC(N)=O)SC(S1)=C1SC2=C(SCCS2)S1,5.86514193
9373,GIWBUJ,C20 H28 S7,CCCCCCSC1=C(SCCCCCC)SC(S1)=C1SC2=CSC=C2S1,6.0607918
9374,GIWCAQ,C10 H6 S5,S1C=CC(=C1)C1=CSC(S1)=C1SC=CS1,5.03356201
9375,GIWCUL,C14 H11 N3,N1C=CC=C1C(c1ccncc1)=C1C=CC=N1,5.1894832399999995
9376,GIWNUY,C48 H52 O4 S4,CCCCCCC1=C(SC=C1)C1=CC=C(S1)c1cc2CCc3cc(C(=O)OC)c(CCc1cc2C(=O)OC)cc3C1=CC=C(S1)C1=C(CCCCCC)C=CS1,5.45316156
9377,GIWTUE,C19 H16 N2 O1,COc1ccc(cc1)N=CC1=CN(CC#C)c2ccccc12,5.11818941
9378,GIWWUH,C22 H23 N3 O2 S1,CCc1cccc2C3=C4N(N(N=CC5=CC=CS5)C(=O)CC4(CC)OCC3)c12,5.97425959
9379,GIWXER,C15 H15 N1 O2,CNC1=C(C=C(C)C)C(=O)c2ccccc2C1=O,5.34213911
9380,GIXDAT,C11 H4 Cl2 F3 I1 N4,NC1=C(I)C(=NN1c1c(Cl)cc(cc1Cl)C(F)(F)F)C#N,6.2180736
9381,GIXDAV,C44 H50 N2,CCCCCCCCN1c2ccc3C=Cc4ccc5N(CCCCCCCC)c6ccc(C=Cc7ccc1c(c7)c2c3)cc6c5c4,5.5005093800000004
9382,GIXDEZ,C42 H46 N2 O6,COCCOCCOCCN1c2ccc3C=Cc4ccc5N(CCOCCOCCOC)c6ccc(C=Cc7ccc1c(c7)c2c3)cc6c5c4,5.49615556
9383,GIXGUQ,C37 H28 N1 P1,C1CCC2=C(P(c3ccccc3)C(=C2C1)c1ccccc1)c1ccc2c(ccc3ccc4ccccc4c23)n1,5.3913917200000006
9384,GIXNUW,C24 H24 S16,C1CSC2=C3SCCCSC4=C5SCCCSC6=C(SCCCSC7=C(SC1)SC(=C(S4)S5)S7)SC(=C(S2)S3)S6,5.632484590000001
9385,GIXQAI,C25 H18 Cl1 N3,Cc1cccc2cc(c(Cl)nc12)C1=NC(=C(N1)c1ccccc1)c1ccccc1,5.69479866
9386,GIXTOZ,C23 H21 N3 O2 S1,O=C1N=C(SC1=C1C(=O)N(Cc2ccccc2)c2ccccc12)N1CCCCC1,5.49751612
9387,GIXXIV,C21 H16 N6 S1,S=C(NN=Cc1ccc2ccccc2n1)NN=Cc1ccc2ccccc2n1,4.9881189899999985
9388,GIXYES,C18 H18 O5,COc1ccc(cc1)C(=Cc1cc(OC)ccc1OC)C(O)=O,6.1337183
9389,GIXYOC,C18 H17 N1 O3,COc1ccc(cc1)C(=Cc1cc(OC)ccc1OC)C#N,6.0093622700000004
9390,GIYCIC,C26 H44 N2 P2,CC(C)(C)P(Cc1nc2ccccc2nc1CP(C(C)(C)C)C(C)(C)C)C(C)(C)C,6.1160309
9392,GIYJII,C22 H11 Cl2 F3 N4,FC(F)(F)c1cc(Cl)c(N2N=C(C=C2N=Cc2cccc3ccccc23)C#N)c(Cl)c1,5.85480161
9393,GIYKEF,C41 H38 N4 S2,CCCCCCC1(CCCCCC)c2cc(ccc2c2ccc(cc12)C1=CC=C(S1)C=C(C#N)C#N)C1=CC=C(S1)C=C(C#N)C#N,4.606071139999999
9394,GIYLOP,C42 H44 N2 O4 S2,CSCCC(=O)OCCCC1=C2C=CC=CN2C(=C1c1ccccc1)C1=C(C(=C2C=CC=CN12)CCCOC(=O)CCSC)c1ccccc1,5.7897663999999995
9395,GIYNIN,C19 H16 N4,CC(Nc1ccc(cc1)C#N)=CC(C)=Nc1ccc(cc1)C#N,6.07902342
9396,GIYNOT,C19 H16 N4,CC(Nc1ccc(cc1)C#N)=CC(C)=Nc1ccccc1C#N,5.72745232
9397,GIYPOW,C41 H24 Cl6 O4,COc1ccc2OC3=CC4=C(c5cc(OC)c(Cc6c(Cl)cccc6Cl)cc5OC4=CC3=C(c2c1)c1c(Cl)cccc1Cl)c1c(Cl)cccc1Cl,3.95408636
9398,GIYZEU,C15 H11 N3 O1 S1,CNC(=O)C(C#N)=C1Nc2c(S1)ccc1ccccc21,5.88936007
9399,GIYZOE,C16 H15 N3 O2 S2,CCOC(=O)C1=C(C)NC(S1)=C(C#N)C(=S)Nc1ccccc1,6.06188025
9400,GIZCOI,C22 H18 N4 O2 S2,O=C(NC(=S)Nc1ccccc1NC(=S)NC(=O)c1ccccc1)c1ccccc1,5.83929112
9401,GIZFOL,C11 H11 N1 O4 S1,CN1C(=C(O)c2ccccc2S1(=O)=O)C(C)=O,6.5293718400000005
9402,GIZMIN,C46 H34 N2 O2,O=C(Cc1ccccc1C1C(C(=O)c2ccccc2)c2ccccc2C(C2=C1c1ccccc1N2)C1=CNc2ccccc12)c1ccccc1,5.823508520000001
9403,GIZNOS,C16 H19 N3 O1,N#CC1=C(C#N)C(C2CCCCC2=C1)N1CCOCC1,6.33943637
9404,GIZPAG,C22 H20 N2 O2,COc1ccc(cc1)C(=CC1=CC(=NO1)c1c(C)cc(C)cc1C)C#N,5.83548152
9405,GIZSAL,C19 H17 N5 O2,CCOC(=O)C(=NNc1cccnc1c1ccccn1)c1ccccn1,6.00147097
9406,GIZSUG,C27 H19 Cl1 N2 O3 S1,Cc1ccc(cc1)S(=O)(=O)N1C=C(C=CC=O)c2c1nc1ccc(Cl)cc1c2c1ccccc1,5.76255501
9407,GOBCEI,C16 H11 N5 S1,NC(=S)NN=C1c2ccccc2c2nc3ccccc3nc12,4.97913924
9410,GOBJUD,C30 H18 O6,O=Cc1cc(C=O)c2C=Cc3cc(C=Cc4cc(C=Cc1c2)c(C=O)cc4C=O)c(C=O)cc3C=O,6.06514561
9411,GOBLOZ,C46 H36 N4,C1CN(c2cccc3ccccc23)C(N1c1cccc2ccccc12)=C1N(CCN1c1cccc2ccccc12)c1cccc2ccccc12,5.08390307
9412,GOBVUP,C18 H10 Cl2 S4,Clc1ccc(cc1)C1=CSC(S1)=C1SC=C(S1)c1ccc(Cl)cc1,5.15628535
9413,GOBXUS,C31 H26 N2 O4 S2,CC12c3ccccc3C(c3ccccc13)C13SC4=C(SC21C(=O)N(C1CCC1)C3=O)C(=O)N(C1CCC1)C4=O,5.75411948
9414,GOCBIJ,C11 H9 Cl1 N2 O1 Se1,CN1C(=[Se])NC(=Cc2ccc(Cl)cc2)C1=O,5.12798552
9415,GOCBOR,C18 H15 N1 O1,CN1C(=O)C=CC1=C(c1ccccc1)c1ccccc1,5.553843690000001
9416,GOCBUX,C17 H13 N1 O1,O=C1NC(C=C1)=C(c1ccccc1)c1ccccc1,5.85969965
9417,GOCGIQ,C35 H28 N2 O3,COc1ccccc1C1CN(C)C23c4cccc5cccc(c45)C2(O)C2CC13C(=O)c1cc3ccccc3nc21,6.043104390000001
9418,GOCHAJ,C17 H20 N2,CN1C=CC=C1C1=CC=C(C2=CC=CN2C)C1(C)C,5.52499962
9419,GOCHEN,C15 H14 O2,CC1(C)C(=CC=C1C1=CC=CO1)C1=CC=CO1,5.50595165
9420,GOCHOX,C19 H18,CC1(C)C(=CC=C1c1ccccc1)c1ccccc1,5.8112634
9421,GOCHUD,C15 H14 S2,CC1(C)C(=CC=C1C1=CC=CS1)C1=CC=CS1,5.44418181
9422,GOCKAM,C18 H26 N2,CCC1=C(C)NC(=C1C)C(C)=C1N=C(C)C(=C1C)CC,4.86457931
9423,GOCKEO,C16 H10 Cl2 O2 S6,CCSc1c(Cl)c2SC(=O)Sc2c2c(SCC)c(Cl)c3SC(=O)Sc3c12,5.584864659999999
9424,GOCKEP,C38 H24 N2,C1Cc2ccc(c3c4ccccc4nc4ccccc34)c3c(ccc1c23)c1c2ccccc2nc2ccccc12,5.26268187
9425,GOCKIS,C13 H5 Cl3 S6,CCSc1c(Cl)c(Cl)c2SSc3c(Cl)c4SC(=S)Sc4c1c23,5.15927861
9426,GOCKIT,C38 H22 N2,c1ccc2c(c1)nc1ccccc1c2c1ccc2C=Cc3ccc(c4c5ccccc5nc5ccccc45)c1c23,4.97995558
9427,GOCNOB,C22 H41 N1 P4,CC(C)N(C(C)C)C1=C(P2P3C(=PP1C23C(C)(C)C)C(C)(C)C)C(C)(C)C,5.76772518
9430,GOCYOM,C30 H20 N2,c1ccc(cc1)N=C(C#Cc1ccccc1)C(=Nc1ccccc1)C#Cc1ccccc1,5.9998382900000005
9431,GOCYOO01,C21 H13 N3 O2,Oc1ccccc1C(=O)c1cnc(c(c1)C#N)C1=CNc2ccccc12,5.57670126
9432,GODDIN,C18 H15 F6 N3 S1,FC(F)(F)c1cc(cc(c1)C(F)(F)F)[N-]C(=S)N1C=CC(C=C1)=[N+]1CCCC1,5.03192932
9433,GODGEO,C30 H25 Br1 N2 O5,COC(=O)C12C3OCC(=CCC(C1C(=NN2c1ccccc1)c1ccccc1)C(=O)O3)c1cccc(Br)c1,5.95249048
9434,GODGIR,C39 H31 F1 N6 O1 S1,Fc1ccc(cc1)C1=C(SC(=NNc2ccccc2)c2ccccc2)C(=O)N2CCCN3C(=NN(c4ccccc4)C123)c1ccccc1,5.60500109
9435,GODGOX,C39 H31 F1 N6 O1 S1,Fc1ccc(cc1)C1C2(SC(=NN2c2ccccc2)c2ccccc2)C(=O)N2CCCN3C(=NN(c4ccccc4)C123)c1ccccc1,5.94378284
9436,GODPEW,C38 H32 Cl2 O12,COc1cc2c(cc1OC(=O)CCl)c1c3c(OC)c(OC)c(OC)c4c5cc(OC)c(OC(=O)CCl)cc5c(c5c(OC)c(OC)c(OC)c2c15)c34,4.34946779
9437,GODQOF,C13 H15 N3,N#CC(C#N)=C1CCCC(=C1)N1CCCC1,5.77969819
9438,GODQUN,C42 H30 N4,N1C(=CC=C1C(c1ccccc1)=C1C=CC(=N1)C1=NC(C=C1)=C(C1=CC=C(N1)c1ccccc1)c1ccccc1)c1ccccc1,3.6090459900000003
9439,GODTAU,C18 H24 N4 O7,[NH3+]C(CC(=O)NC(C)C(=O)NC(Cc1ccccc1)C(=O)NCC(O)=O)C(=O)[O-],7.00693165
9440,GODTUR,C30 H22 N2 O2,COc1ccc2c(c1)N(C(=O)c1c(Cc3ccccc3)cccc21)c1cccc2cccnc12,6.04038326
9441,GODVEA,C12 H15 N3 S2,CN(C1=NC(=S)NC(C)(C)S1)c1ccccc1,5.67275744
9442,GODVIE,C26 H28 O6,COc1c(cc(OCC(C)=C)c2C(=O)c3ccccc3C(=O)c12)C1OC(C)CC(C)(C)O1,5.70405053
9443,GODVOK,C25 H26 O5,CC1CC(C)(C)OC(O1)c1cc2C(=O)c3ccccc3C(=O)c2c(O)c1CC(C)=C,6.238210029999999
9444,GODVUT,C25 H27 N3 O3,CN1c2ccccc2C2=C1C(N1C(=O)C=CC31C2CC(=CC3=O)C)C(=O)NC(C)(C)C,6.01099496
9445,GODWAA,C28 H33 N3 O3,CCCC1=CC(=O)N2C(C(=O)NC(C)(C)C)C3=C(C4CC(=CC(=O)C124)C)c1ccccc1N3C,5.8194268000000005
9446,GODWIF,C16 H16 N2 O6,COCCN1C(=O)c2cc3C(=O)N(CCOC)C(=O)c3cc2C1=O,6.80883276
9447,GODWIH,C30 H28 O4 S1,COc1ccc(SC(c2ccc(OC)cc2)=C(c2ccc(OC)cc2)c2ccc(OC)cc2)cc1,5.93398673
9448,GODWOL,C22 H25 N1 O1,CN(C)c1ccc(cc1)C1=CC2=CC3=CC(=O)CCC3CC2CC1,4.975601759999998
9449,GODWUR,C26 H27 N3 S1,N#CC(C#N)=C1CCC2CC3CCC(=CC3=CC2=C1)C1=CC=C(S1)N1CCCCC1,4.2223906200000005
9450,GODWUU,C38 H42 N4 O4,COC(=O)CCC1=C2NC(=C1C)C=C1N=C(C=C3NC(=CC4=NC(=C2)C(=C4C)CCC(=O)OC)C(=C3CC=C)C)C(=C1CC=C)C,4.27273168
9451,GODXEE,C21 H15 N3 O1,COc1ccc(cc1)N1c2ccccc2c2nc3ccccc3nc12,5.76881363
9452,GODXII,C23 H19 N3,C(CN1c2ccccc2c2nc3ccccc3nc12)Cc1ccccc1,5.821331600000001
9453,GODXIJ,C20 H17 N1 O8,CC1(C)OC(=O)C(C(=O)O1)=C1NC(c2ccccc12)=C1C(=O)OC(C)(C)OC1=O,5.324995940000001
9454,GODXOM,C16 H11 Br1 N4,Brc1cccc(c1)C1=CC(=NN1)C(=CC1=CC=CN1)C#N,5.92473487
9455,GODXOP,C20 H17 N5 O6,CN1C(=O)N(C)C(=O)C(C1=O)=C1NC(c2ccccc12)=C1C(=O)N(C)C(=O)N(C)C1=O,5.09941356
9456,GODXUV,C18 H15 N3 O4,CCOC(=O)C(C#N)=C1NC(c2ccccc12)=C(C#N)C(=O)OCC,5.27438276
9457,GODZIK,C20 H19 N3 O3,CN1C(=O)C2=C(N(CN(Cc3ccccc3)C2)c2ccc(O)cc2)C1=O,5.961198120000001
9458,GODZOQ,C26 H22 F1 N3 O2,CN1C(=O)C2=C(N(CN(Cc3ccccc3)C2c2ccccc2)c2ccc(F)cc2)C1=O,6.13671155
9459,GOFCOW,C23 H19 Br1 N2 O3 S1,CN1c2ccccc2C(=C1N(CC(=O)c1ccccc1)S(=O)(=O)c1ccccc1)Br,6.0694994300000005
9460,GOFDAJ,C9 H7 I1 N2,Nc1ccc(I)c2cccnc12,6.01344398
9461,GOFDEN,C26 H22 N2 O4 S1,CN1C(=C(C2=COc3ccccc3C2=O)c2cccc(C)c12)NS(=O)(=O)c1ccc(C)cc1,5.8395632299999995
9462,GOFDIR,C13 H9 N3,c1ccc(cc1)c1nnc2ccccc2n1,6.14895668
9463,GOFDOX,C7 H4 I1 N3,Ic1nnc2ccccc2n1,6.256985879999999
9464,GOFDUD,C21 H14 N4 O2,O=C(N(C(=O)c1ccccc1)c1nnc2ccccc2n1)c1ccccc1,6.45345208
9465,GOFFAL,C11 H12 N4 O1,C1CN(CCO1)c1nnc2ccccc2n1,5.88228511
9466,GOFFIS,C10 H11 N1 O2 S2,O=C(C(=S)N1CCOCC1)C1=CC=CS1,6.1081395999999994
9467,GOFFOY,C15 H13 N1 O1 S1,Cc1ccc(cc1)C(=O)C(=S)Nc1ccccc1,6.2534484
9468,GOFFUF,C8 H4 F3 N3,FC(F)(F)c1nnc2ccccc2n1,6.602298360000001
9469,GOFGEP,C21 H17 N3 O2,CCOC(=O)c1c(N)c2nc3ccccc3nc2cc1c1ccccc1,5.08390307
9470,GOFGIT,C26 H19 N5,CN1c2ccccc2N=C1c1c(N)c2nc3ccccc3nc2cc1c1ccccc1,4.75001938
9471,GOFGUG,C18 H14 N4,CN1c2ccccc2c2nc3N(C)c4ccccc4c3nc12,5.51166604
9472,GOFHAN,C26 H18 Cl1 N3 O2,CN1c2ccccc2c2c1nc1N(C)c3ccccc3c1c2C(=O)c1cc(Cl)ccc1O,5.64282492
9473,GOFHOA,C27 H28 N2 O4,OC1CN2c3ccccc3C3=C2C(C1O)N(CC=C)C(COC(=O)C=Cc1ccccc1)C3,5.77670493
9474,GOFJET,C15 H13 N3,CN1C=C(N=Nc2ccccc2)c2ccccc12,5.79656924
9475,GOFJIX,C14 H10 Br1 N3,Brc1ccccc1N=NC1=CNc2ccccc12,5.65370947
9476,GOFJOD,C18 H12 N4,N1C=C(C2=CC=C3N=Nc4ccccc4N23)c2ccccc12,5.545952379999999
9477,GOFJUJ,C14 H11 N3 O1,Oc1ccccc1N=NC1=CNc2ccccc12,5.735343629999999
9478,GOFKAQ,C14 H10 F1 N3,Fc1ccccc1N=NC1=CNc2ccccc12,5.78840583
9479,GOFKIX,C18 H12 B1 F2 N3,F[B-]1(F)N2C(=Nc3cccc[n+]13)C=CC=C2C#Cc1ccccc1,5.73752054
9480,GOFKOD,C18 H14 B1 F2 N3,F[B-]1(F)N2C(=CC=CC2=Nc2cccc[n+]12)C=Cc1ccccc1,5.706499559999999
9481,GOFLET,C32 H14 F12 N2 O4,FC(F)(F)c1cc(CN2C(=O)c3ccc4C(=O)N(Cc5cc(cc(c5)C(F)(F)F)C(F)(F)F)C(=O)c5ccc(C2=O)c3c45)cc(c1)C(F)(F)F,5.7307176900000005
9482,GOFPOJ,C19 H13 I1 N4 O2,COc1cccc(c1)C1=C(I)c2nc3ccccc3cc2C(O1)N=[N+]=[N-],5.9394290199999995
9483,GOFQOK,C18 H18 N4 O2,CN1N(c2ccccc2)C(=O)C(=C1C)N=Nc1ccc(O)cc1C,5.63166825
9484,GOFREB,C15 H15 N7 O1,COc1nnc(nn1)N(Cc1ccccn1)Cc1ccccn1,5.818338349999999
9485,GOFREZ,C16 H12 O4,COc1cc2cc3C(=O)C=CC(=O)c3cc2cc1OC,5.51193816
9486,GOFTOL,C29 H26 N2 O2,O=C(C=Cc1ccccc1)C1C(C2CCCN2C21C(=O)Nc1ccccc21)c1ccccc1,6.2455571
9487,GOFWAB,C28 H17 N1 S3,S1C=CC2=C1SC1=C2c2c(S1)ccc1ccc(cc21)N(c1ccccc1)c1ccccc1,5.90541479
9488,GOFWEF,C38 H19 N1 S6,S1C=CC2=C1SC1=C2c2c(S1)ccc1ccc(cc21)N(c1ccccc1)c1ccc2ccc3SC4=C(C5=C(SC=C5)S4)c3c2c1,5.67983241
9489,GOFWIJ,C28 H19 N1 S3,S1C=CC2=C1SC1=C2C=C(S1)C=Cc1ccc(cc1)N(c1ccccc1)c1ccccc1,5.40037148
9490,GOGQAU,C29 H24 N1 P1 S1,Cc1cccc(C)c1N=C1c2ccccc2C=C1P(=S)(c1ccccc1)c1ccccc1,5.2896211399999995
9491,GOGTAZ,C25 H10 F4 I1 N1,Fc1c(F)c(F)c(C#Cc2ccccc2C#Cc2ccc3ccccc3n2)c(I)c1F,5.76500404
9492,GOGVEE,C28 H32 N2 S4,CCCCCCC1=Nc2c(S1)c(C1=CC=CS1)c1N=C(CCCCCC)Sc1c2C1=CC=CS1,5.28635577
9493,GOGYAC,C27 H29 N1 O2,OC(C(c1ccccc1)[N+]1([O-])CCC2CCCC12)(c1ccccc1)c1ccccc1,6.96339344
9494,GOGYUZ,C15 H12 N2 O2,COc1ccc(O)c(C=Nc2ccccc2C#N)c1,5.95439528
9495,GOHBAH,C25 H26 N2 O1,C=CC1CN2CCC1CC2C(Oc1ccccc1)c1ccnc2ccccc12,6.48773843
9496,GOHBEM,C25 H10 Br1 F4 N1,Fc1c(F)c(F)c(C#Cc2ccccc2C#Cc2ccc3ccccc3n2)c(Br)c1F,5.87711494
9497,GOHHIX,C31 H27 F3 N4 O5 S1,CCOC(=O)C1=C(Nc2ccc(cc2)C(=O)N2CCOCC2)N=C(S1)c1cccc(NC(=O)c2ccc(cc2)C(F)(F)F)c1,5.4009157
9498,GOHHUJ,C19 H18 Cl1 N1 O1,CC(C)C(c1cccc(Cl)c1)c1ccc2ccccc2[n+]1[O-],5.94786454
9499,GOHJAR,C25 H16 Cl1 F2 N5 O2,Nc1nccc(Oc2ccc(Nc3nccc4C=CN(C(=O)c34)c3ccc(F)cc3)cc2F)c1Cl,5.93561942
9500,GOHJEU,C24 H11 F4 I1 O2,COc1ccc(cc1)C(=O)C#Cc1ccccc1C#Cc1c(F)c(F)c(F)c(F)c1I,5.783235660000001
9501,GOHJUJ,C22 H15 N3 O3,CC(=O)C(C1Oc2ccccc2C1c1cc(C#N)c(cc1C#N)C#N)C(C)=O,6.0983435
9502,GOHKUJ,C16 H28 O6,CC1(C)CCOCCOCCC(C)(C)C(O)C(=O)C(=O)C1O,6.56365818
9503,GOHRUR,C37 H39 B1 F1 P1,Cc1cc(C)c(c(C)c1)[B-](F)(c1ccccc1[P+](C)(c1ccccc1)c1ccccc1)c1c(C)cc(C)cc1C,5.7957529
9504,GOHTUU01,C30 H22 N2 O3,COc1ccc(CN2C=C3C=CC4=C(C3=N2)C(=C(OC4=O)c2ccccc2)c2ccccc2)cc1,5.76690883
9505,GOHVOO,C32 H34 N1 P3,CC(C)(C)C1P2P3C4=C(N=C(c5ccccc5)C4(P1C23C(C)(C)C)c1ccccc1)c1ccccc1,5.55629271
9506,GOHYEK,C20 H16 N4 O4,COc1ccc(cc1)C(=O)C=C1NC2=NON=C2N=C1c1ccc(OC)cc1,5.31792098
9507,GOJBIT,C22 H22 N2 O1,CN1C(N(C)c2ccccc12)c1ccccc1OCc1ccccc1,6.3100480800000005
9508,GOJBOZ,C22 H21 N5 O1,CN1C(N(C)c2ccccc12)c1ccccc1OCc1ccc(cc1)N=[N+]=[N-],5.87738706
9509,GOJCAJ,C13 H11 N1 O3 S2,O=C1N(Cc2ccccc2)C(=O)C2=C1SCCS2=O,6.144602859999999
9510,GOJCIR,C6 H2 Cl10 O1 S2,ClC(Cl)(Cl)C1OC(SC(Cl)(S1)C(Cl)(Cl)Cl)C(Cl)(Cl)Cl,8.86927884
9511,GOJDAK,C34 H32,CC(C)(C)c1cc2ccc3ccc4ccc5ccc6ccccc6c5c4c3c2c(c1)C(C)(C)C,5.77371168
9512,GOJZAG10,C27 H20 Cl2 O2,CC1=C(c2ccc(C)cc2)c2ccc(C)cc2C2(O1)C(=C(Cl)C(=O)c1ccccc21)Cl,5.518196779999999
9513,GOKCAK,C30 H21 N3 O1 S1,O=C(c1ccccc1)C1=CN(N=C(c2ccccc2)c2ccccc2)C(=S)N=C1c1ccccc1,5.43329726
9514,GOKCIS,C18 H13 Cl1 N4 O2,NC1=C(C(=[NH2+])N2N1C(=O)C(=C2[O-])c1ccc(Cl)cc1)c1ccccc1,5.517652549999999
9516,GOKMOJ,C15 H14 N2 O1,CCC1=C(C)Nc2c(ccc3cccnc23)C1=O,6.02868236
9517,GOKNIE,C14 H12 Cl1 N1 O2,Oc1ccc(Cl)cc1C[NH+]=Cc1ccccc1[O-],5.53153036
9518,GOKNOM,C30 H24 N4,Cc1ccc(cc1)N1C(=CC2=C1C=C(N2c1ccc(C)cc1)c1cccnc1)c1cccnc1,5.765276150000002
9519,GOLFET,C14 H9 Cl3 N2 O1 S1,Clc1ccc(NC(=S)NC(=O)c2ccc(Cl)cc2Cl)cc1,6.3002519800000005
9520,GOLFUI,C26 H25 N5,Cc1ccc(cc1)C1N=C(NCc2cccnc2)N2N=C(C)C=C(C12)c1ccccc1,4.58729529
9521,GOLGOG,C30 H27 N1 O3,CCOC1C2(C3CCCN3C3(C(=O)c4ccccc4C3=O)C12c1ccccc1)c1ccccc1,6.00528056
9522,GOLGUM,C25 H23 N1 O4,Cc1ccc(cc1)C12C(C(O)=O)C1(C)C1CCCN1C12C(=O)c2ccccc2C1=O,5.89942828
9523,GOLHAT,C17 H17 N1 O2,CC12CC1C1CCCN1C12C(=O)c2ccccc2C1=O,5.68636313
9524,GOLHIZ,C24 H12 Br1 F2 N1 O4,Fc1ccc(cc1)C(=O)N(C(=O)c1ccc(F)cc1)C1=C(Br)C(=O)c2ccccc2C1=O,5.83248827
9525,GOLXEL,C25 H15 Br1 N4,Brc1ccc(cc1)c1cc(nc(C2=CNc3ccccc23)c1C#N)c1ccccn1,5.682009320000001
9526,GOLZAK,C24 H23 N3 O3 S2,CC(C)(C)CN=Cc1cc(ccc1O)C1=CC=C(C2=C3OCCOC3=CS2)C2=NSN=C12,4.99981989
9527,GOLZEM,C19 H22 Cl2 N2 O7,CCN(CC)C1=C(C(C(=O)OC)C(O)(C(=O)OC)c2cc(Cl)nc(Cl)c12)C(=O)OC,6.05453317
9528,GOMBUG,C17 H16 N4 O1 S1,CCOc1ccccc1C1=NNC(=S)N1N=Cc1ccccc1,5.90949649
9529,GOMCIV,C17 H15 F1 N4 O1 S1,CCOc1ccccc1C1=NNC(=S)N1N=Cc1ccccc1F,5.60091939
9530,GOMFUM,C34 H48 N2 O1,CC1CCC(C(C)C)C2(C1)CC(C)(C)[N+](=C2C([O-])=Nc1ccccc1)c1c(cccc1C(C)C)C(C)C,5.941333810000001
9531,GOMGAQ,C20 H20 O5,COc1ccc(cc1OC)C1=CC2=C(C=C3CCCCC3O2)C(=O)O1,5.52499962
9532,GOMKIC,C22 H16 N6,Nc1ncc(cn1)C(c1cnc(N)nc1)=C1c2ccccc2c2ccccc12,5.2180552
9533,GOMMED,C23 H27 N1 O5,CC(C)OC(=O)C(CC(=O)c1ccccc1)(Nc1ccccc1)C(=O)OC(C)C,5.96609617
9534,GOMTOU,C25 H32 B1 N1,CC(C)(C)C=C1c2ccccc2c2cccc[n+]2[B-]21C1CCCC2CCC1,5.68010452
9535,GOMVOW,C24 H23 N3,CC1=CC(=C(N1)C(c1ccc(cc1)c1ccncc1)=C1N=C(C)C=C1C)C,5.09642031
9536,GOMVUC,C34 H32 N4,Cc1cc(C)c(c(C)c1)C(C1=C(C)C=C(N1)C=Cc1ccncc1)=C1N=C(C=Cc2ccncc2)C=C1C,4.144293940000001
9537,GOMWAJ,C40 H38 N2 O4,COC(=O)c1ccc(C=CC2=CC(=C(N2)C(=C2N=C(C=Cc3ccc(cc3)C(=O)OC)C=C2C)c2c(C)cc(C)cc2C)C)cc1,4.1617092300000005
9538,GOMWIP02,C7 H8 N2 O4,OC(=O)CC(N1C=[NH+]C=C1)C(=O)[O-],6.375899629999999
9539,GONDEV,C9 H8 B1 F2 N1 O3,OC(=O)C[N+]1=C2C=CC=CC=C2O[B-]1(F)F,5.93970112
9540,GONDUL,C13 H16 B1 F2 N1 O3,COC(=O)C(C(C)C)[N+]1=C2C=CC=CC=C2O[B-]1(F)F,5.93480308
9541,GONHIA,C23 H23 N1 O4 S1,COC(=O)C(C=C)C(NS(=O)c1c(OC)ccc2ccccc12)c1ccccc1,6.38542361
9542,GONHOJ,C15 H16 B1 I2 N1,CC(C)C1c2ccccc2c2cccc[n+]2[B-]1(I)I,5.117100959999999
9543,GONKAV,C15 H24 N2 O2,CCCCNC1=CC(=O)C(=C(C)C1=O)NCCCC,5.35710537
9544,GONLON,C17 H18 O4,COc1ccc(CC(O)C(O)C(=O)c2ccccc2)cc1,6.17970554
9545,GONYAL,C34 H32 N4 O5,CCNc1cc2Oc3cc(NCC)c(C)cc3C3(N(N=Cc4cccc(C(O)=O)c4O)C(=O)c4ccccc34)c2cc1C,5.77262322
9546,GONZER,C34 H27 N1 O2,O=C1c2ccccc2C(=O)C21N1CCCC1C1(C(c3ccccc3)C21c1ccccc1)c1ccccc1,5.944599180000001
9547,GOPGOH,C28 H23 F6 N3 O2,CC(N(C)C(=O)C1=C(c2ccc(C)cc2)c2cccnc2C(=O)N1C)c1cc(cc(c1)C(F)(F)F)C(F)(F)F,6.20147466
9548,GOPKAX,C23 H24 O7,COc1ccc(cc1)C1=C(O)C(OC)(OC)C(=C(OC)C1=O)c1ccc(OC)cc1,5.66377769
9549,GOPNII,C12 H12 O6,COc1cc(ccc1O)C=C(OC(C)=O)C(O)=O,6.06460139
9550,GOPQEJ,C40 H28 N4 O8,O=C1N2C3CCCCC3N3C(=O)c4ccc5C(=O)N(C6CCCCC6N6C(=O)c7ccc1c1c(ccc(C6=O)c71)C2=O)C(=O)c1ccc(C3=O)c4c51,5.1399585199999995
9551,GOPVEP,C20 H19 N3,CC(C)(C)NC1=NC(c2ccccc12)=C(C#N)c1ccccc1,5.25315788
9552,GOPVIT,C24 H20 F1 N3 S1,CC(C)(C)NC1=NC(c2ccccc12)=C(C#N)C1=CC=C(S1)c1ccc(F)cc1,4.62539123
9553,GOPWEQ,C18 H17 N3 S1,CC(C)(C)NC1=NC(c2ccccc12)=C(C#N)C1=CC=CS1,4.99301705
9554,GOQBAP,C20 H12 S8,CSC1=C(SC)SC(S1)=C1SC2=C(S1)SC1=C(S2)c2cccc3cccc1c23,4.0313666900000005
9555,GOQGEB,C33 H29 N3 O4 S1,CN(C)c1cccc2c1cccc2S(=O)(=O)N(CCN1C(=O)c2cccc3cccc(C1=O)c23)Cc1ccccc1,5.29506341
9556,GOQJEE,C30 H33 F6 N3 S1,FC(F)(F)c1cc(CSC(=NC23CC4CC(CC(C4)C2)C3)N2CCN(CC2)c2ccccc2)cc(c1)C(F)(F)F,6.186508389999999
9557,GOQKOP,C35 H35 N7 O1,CN(C)c1ccc(cc1)C1(N(N=Cc2cnc3ccccc3n2)C(=O)c2cc(ccc12)N(C)C)c1ccc(cc1)N(C)C,5.23465414
9558,GOQLEG,C14 H10 Cl1 F1 N2 O2 S2,CCS(=O)C1=C(N2C=CC=N2)C(=O)c2cc(F)c(Cl)cc2S1,5.93806845
9559,GOQNAE,C20 H13 F3 N4 O2,FC(F)(F)c1cccc(c1)C1=C([O-])[n+]2ccccc2N(Cc2cncnc2)C1=O,4.8368237
9560,GOQNIM,C28 H23 F2 N3 O1 S1,Fc1ccc(cc1)C=C1CCCC2C(N(N=C12)C(=S)NC(=O)c1ccccc1)c1ccc(F)cc1,5.47601913
9561,GOQRUC,C13 H14 N2 O4,CCOC(=O)C(=O)C(=NNc1ccccc1)C(C)=O,6.04419284
9562,GOQSIO,C18 H24 S8,CCC1SC2=C(SC1CC)SC(S2)=C1SC2=C(SC(CC)C(CC)S2)S1,5.50540743
9563,GOQVEP,C25 H25 N3 O5,CCN1C(=O)C(NC(=O)OC(C)(C)C)(C2=CC(=O)N(C2=O)c2ccccc2)c2ccccc12,5.73425517
9564,GOQVIR,C24 H24 N2 O4,COC1=C(NC(=C1OC)c1ccccc1)C1=C(OC)C(=C(N1)c1ccccc1)OC,5.42595018
9565,GORBUN,C38 H38 B2 N6,CN1C=C[N+]2=C1[B-]1(N(C(=C=Nc3c(C)cccc3C)[B-]2(c2ccccc2)C2=[N+]1C=CN2C)c1c(C)cccc1C)c1ccccc1,5.84201225
9566,GORFEY,C17 H14 N2 O1,COc1ccc(cc1)N=Nc1ccc2cccccc12,4.798727749999999
9567,GORHUQ,C34 H40 N6,CN(C)c1ccc(cc1)C(=NN=C(c1ccc(cc1)N(C)C)c1ccc(cc1)N(C)C)c1ccc(cc1)N(C)C,5.28036927
9568,GORJOP,C23 H17 N3 O7 S1,CCOC(=O)CN1C(=O)C2(c3ccccc13)C(=C(N)OC1=C2S(=O)(=O)Oc2ccccc12)C#N,5.9881374
9569,GORMUV,C19 H22 O3 P2,CC(C)(C)C12P3OC4=C(OP1C23C(C)(C)C)c1ccccc1C4=O,5.9100407200000005
9570,GORNUZ,C8 H4 F9 N3 O2,CN1N=C(C(=NO)C1=O)C(F)(F)C(F)(F)C(F)(F)C(F)(F)F,5.93752422
9571,GORQUC,C31 H26 Cl1 N5 O4 S1,COC(=O)C1CN(C)C2(C(=O)Nc3ccccc23)C21SC1=NC3=C(CCN4C=CC=C34)C(N1C2=O)c1ccc(Cl)cc1,6.00119886
9572,GORSOV,C18 H27 N6 O2 P1 S1,CN(N=Cc1ccccc1)P1(=S)N2CCCN1CCNC(=O)CC(=O)NCC2,6.21888994