,ID,formula,smiles,HOMO_LUMO_gap
4199,CURGUT,C25 H19 N1 O2,Cc1ccccc1C(C1C(=O)c2ccccc2C1=O)C1=CNc2ccccc12,5.298328789999999
4200,CURHOP,C14 H4 N2 O2 S2,O=C1C2=C(SC(=C(S2)C#N)C#N)C(=O)c2ccccc12,4.70049465
4201,CURKAC,C16 H12 O2 S4,CSC(=S)C(=O)c1ccc2ccc(cc2c1)C(=O)C(=S)SC,6.234672550000001
4202,CURKEG,C12 H10 O2 S4,CSC(=S)C(=O)c1ccc(cc1)C(=O)C(=S)SC,5.66840362
4203,CURMIM,C26 H23 N1 O4,CC1OC2CC(C)(Nc3c2ccc2C(=O)C4=C(C=Cc5cc(C)ccc45)C(=O)c32)C1O,5.01424192
4204,CURNAF,C38 H26 O3,O=C(C=C(C(=O)c1ccc(cc1)C1=C(C=C(O1)c1ccccc1)c1ccccc1)c1ccccc1)c1ccccc1,5.12472015
4205,CURNIN,C14 H11 N3 O1,O=C1Nc2ccccc2C1=NNc1ccccc1,5.54513605
4206,CURRIS,C29 H23 N1 O4,O=C(CC1CC2CCC1C2)Oc1ccc2c(ccc3c2OC(=O)C(=C3c2ccccc2)C#N)c1,5.7701742000000005
4207,CURXIY,C19 H13 Cl1 N2 O1,Clc1ccccc1C1=CC(=O)C2(C=CC=CN12)c1ccccn1,5.74160225
4208,CUSBOK,C26 H14 F6 N2 O6,FC(F)(F)Oc1ccc(CN2C(=O)c3cc4C(=O)N(Cc5ccc(OC(F)(F)F)cc5)C(=O)c4cc3C2=O)cc1,5.987865279999999
4209,CUSBUQ,C26 H14 F6 N2 O4 S2,FC(F)(F)Sc1ccc(CN2C(=O)c3cc4C(=O)N(Cc5ccc(SC(F)(F)F)cc5)C(=O)c4cc3C2=O)cc1,5.606361659999999
4210,CUSFAX,C24 H28 N2 O9,COC(=O)C1(CC2N(C)C1C1N(C(C=C)c3c(OC)c(OC)c(C)c(O)c3C1=O)C2=O)C(=O)OC,6.5786244499999995
4211,CUSMAG,C21 H22 Cl1 N3 O3,CCOC(=O)CNN=C(Nc1ccc(C)cc1)C(=O)C=Cc1ccc(Cl)cc1,5.62867499
4212,CUSMEK,C27 H25 N3 O4,CCOC(=O)C(=NN=C(Nc1ccc(C)cc1)C(=O)C=Cc1cccc2ccccc12)C(C)=O,5.393296510000001
4213,CUSNAG,C30 H31 B1 F2 N2 O8,COc1cc(cc(OC)c1OC)C1=[NH+]C(C=C1)=C1O[B-](F)(F)OC(=C1)C1=CC=C(N1C)c1cc(OC)c(OC)c(OC)c1,4.85423898
4214,CUSNEK,C31 H33 B1 F2 N2 O8,COc1cc(cc(OC)c1OC)C1=CC=C(N1C)C1=CC(O[B-](F)(F)O1)=C1C=CC(=[N+]1C)c1cc(OC)c(OC)c(OC)c1,4.99818721
4215,CUSQUE,C28 H21 N3 O2 S1,NC(=S)NN=C(c1ccccc1)c1cc(cc(c1)C(=O)c1ccccc1)C(=O)c1ccccc1,5.58486467
4216,CUSRAL,C21 H14 Br3 N3 O1 S1,NC(=S)NN=C(c1cccc(Br)c1)c1cc(Br)cc(c1)C(=O)c1cccc(Br)c1,5.29696822
4217,CUSROZ,C22 H18 Br2 N6 S2,NC(=S)NN=C(c1ccc(Br)cc1)c1cccc(c1)C(=NNC(N)=S)c1ccc(Br)cc1,5.486903679999999
4218,CUSXOD,C25 H27 Br4 N3 O8,COC1=C(Br)CC2(OC=C1Br)ON=C(C2OC(C)=O)C(=O)NCCCOc1c(Br)cc(CCNC(C)=O)cc1Br,5.09968567
4219,CUSXOG,C12 H7 Cl2 I1 N2,Clc1cccc(N=Nc2ccc(I)cc2)c1Cl,5.857522749999999
4220,CUTCID,C38 H58 P2 S2,CC(C)(C)c1cc(c(P=C2SC(=S)P2c2c(cc(cc2C(C)(C)C)C(C)(C)C)C(C)(C)C)c(c1)C(C)(C)C)C(C)(C)C,5.27329431
4221,CUTCOJ,C37 H60 P2 S1,CC(C)(C)c1cc(c(PC(S)=Pc2c(cc(cc2C(C)(C)C)C(C)(C)C)C(C)(C)C)c(c1)C(C)(C)C)C(C)(C)C,5.18730634
4222,CUTCUQ,C23 H21 N1 O1,CN1c2ccccc2C(C)(C)C21Oc1ccc3ccccc3c1C=C2,6.07766286
4223,CUTDUQ10,C22 H23 Br1 N4 O7,COC(=O)C1C(C(N2C1N(C)C1=C2C(=O)N(C)C(=O)N1C)C(=O)c1ccc(Br)cc1)C(=O)OC,5.543231240000001
4224,CUTFIJ,C21 H16 N2 O3,CC1=CC(=O)C(=C(C)NN=C2c3ccccc3c3ccccc23)C(=O)O1,5.55547637
4225,CUTKUZ,C17 H13 N1,c1ccc(cc1)C=Cc1cccc2cccnc12,5.73452729
4226,CUTLAG,C24 H19 N1,Cc1ccc2cccc(C=Cc3ccc(cc3)c3ccccc3)c2n1,5.4994209199999995
4227,CUTLIO,C19 H14 N2,Cc1ccc2cccc(C=Cc3ccc(cc3)C#N)c2n1,5.64200857
4230,CUTMOT,C14 H28 N2 P2 S2,CC(C)N(C(C)C)C1=PC(=[N+](C(C)C)C(C)C)P1(=S)[S-],5.56064654
4231,CUTNOU,C21 H16 Cl1 N1 O1 S1,Clc1ccccc1C1Nc2ccccc2SC1C(=O)c1ccccc1,5.87384958
4232,CUTQAJ,C14 H28 N2 P2 Se2,CC(C)N(C(C)C)C1=PC(=[N+](C(C)C)C(C)C)P1(=[Se])[Se-],5.1701631500000005
4233,CUTTAP,C29 H25 N1 O1,CCN1CC(=Cc2cccc3ccccc23)C(=O)C(C1)=Cc1cccc2ccccc12,5.795480789999999
4234,CUTVUI,C17 H16 O2,CCCCOc1ccc2cccc3C=CC(=O)c1c23,5.60527321
4235,CUVFOO,C6 H11 N1 O4 S2,[NH3+]C(CSSCCC(O)=O)C(=O)[O-],7.2975492399999995
4236,CUVGEH,C17 H17 O3 P1,CCOP(O)(=O)Cc1c2ccccc2cc2ccccc12,5.51520352
4237,CUVHUY,C12 H17 N1 O3 S2,CCOC(=O)C(=NS(=O)C(C)(C)C)C1=CC=CS1,6.38487939
4239,CUVLUA,C16 H12 N4,CC1=C(C)C(C(=C(C)C1=C(C#N)C#N)C)=C(C#N)C#N,5.28227407
4241,CUVVEX,C13 H10 O6,CC(=O)Oc1ccc2C(=C(C(C)=O)C(=O)Oc2c1)O,6.362566059999999
4242,CUVVIA,C13 H12 O2,CC1=CC(=O)OC1=Cc1ccccc1C,5.787045249999999
4243,CUVXEY,C15 H7 F1 O2,Fc1ccc2c3ccccc3C3=CC(=O)Oc1c23,5.901605190000001
4244,CUVYAV,C29 H18 Cl1 N1 O1,Clc1ccc(cc1)c1cc2OC(=C(c3ccccc3)c3cccc(n1)c23)c1ccccc1,5.83003925
4245,CUWDAA,C28 H21 Br1 O3,COC(=O)C(=C)C1OC(=C(C#Cc2ccccc2)C1c1ccccc1)c1ccc(Br)cc1,5.82759022
4246,CUWGAE,C16 H17 N1 O4,CCOC(=O)C1N(C=CC=C1C=O)c1ccc(OC)cc1,5.7799703000000004
4247,CUWKAH,C18 H25 N1 S7,CCCCCCCCCCCCN1C2=C(SSC2=S)SC2=C1C(=S)SS2,4.9404990699999995
4249,CUWZUR,C17 H18 O3,COc1ccc(C=Cc2ccccc2OC)cc1OC,5.95793276
4250,CUXHEK,C17 H12 O4,COc1ccc(cc1)C12OC1C(=O)c1ccccc1C2=O,6.1356231
4251,CUXSEU,C27 H27 N3 O5,CC(=O)N1C(Cc2ccccc2)C(=O)NC(=CC2=CN(C(=O)OC(C)(C)C)c3ccccc23)C1=O,6.04092748
4252,CUXXAW,C14 H9 N3,c1ccc2nc3N4C=CC=C4C=Cc3nc2c1,5.15546901
4253,CUXXEA,C16 H10 N4,c1ccc2nc3N4C=CC=C4C4=CC=CN4c3nc2c1,5.07573966
4254,CUXXIE,C28 H22 N4,C1CC2C=CC1C1=CN3c4nc5ccccc5nc4N4C=C5C6CCC(C=C6)C5=C4C3=C21,5.08199827
4255,CUXXOK,C20 H15 N3,C1CC2C=CC1C1=CN3C(=C21)C=Cc1nc2ccccc2nc31,5.15574112
4256,CUXYIG,C31 H31 N3 O2 S1,Cc1ccc(cc1)S(=O)(=O)NC1c2cc(C)ccc2N2Cc3cc(C)ccc3NCC12c1ccccc1,6.08963586
4257,CUXYUR,C36 H20 N6,c1ccc2nc3N4C(=C5C=CC=CC5=C4C4=C5C=CC=CC5=C5C=Cc6nc7ccccc7nc6N45)C=Cc3nc2c1,3.70863966
4258,CUXZED,C22 H15 N1 O2,COc1ccc2C=C3N(C(=O)c4ccccc34)c3ccccc3c2c1,5.48254986
4259,CUYHEL,C38 H28 N1 O1 P1,O=P1(c2ccccc2)c2ccccc2C(=C1c1ccccc1)c1ccc(cc1)N(c1ccccc1)c1ccccc1,5.3005056900000005
4260,CUYJEN,C42 H40 F4 N2 O6,CCCCC(CC)CN1C(=O)C(c2cc(F)cc(F)c12)=C1C(=O)Oc2cc3c(OC(=O)C3=C3C(=O)N(CC(CC)CCCC)c4c(F)cc(F)cc34)cc12,4.26538461
4262,CUYJOV,C10 H6 N2 O4 S2,CN1C(=O)C2=C(SC3=C(S2)C(=O)N(C)C3=O)C1=O,4.67709286
4263,CUYJOX,C32 H20,c1cc2C=Cc3cccc4cc5cccc(C=Cc6cccc7cc(c1)c2cc67)c5cc34,4.94376444
4264,CUYKOX,C30 H22,c1ccc(cc1)C=Cc1ccccc1C#Cc1ccccc1C=Cc1ccccc1,5.852896810000001
4265,CUYQAO01,C25 H23 N1 O5,COc1cc(cc(OC)c1OC)C1N2C(CCC2=O)C(=O)c2ccc3ccccc3c12,6.13426254
4266,CUYWOI,C15 H12 N2,C1N2C3=CC4=CC=CC=C(C=C2C=CC=C3)N14,4.83709581
4267,CUYWUO,C16 H14 N2,C1CN2C3=CC=CC=C2C=C2C=CC=CC(=C3)N12,5.18621787
4268,CUYXAV,C17 H16 N2,C1CN2C3=CC4=CC=CC=C(C=C2C=CC=C3)N4C1,5.0928828300000015
4269,CUYYEA,C14 H12 N2,N1C2=CC=CC=C1C=C1NC(=C2)C=CC=C1,5.12254324
4270,CUYYIE,C15 H14 N2,CN1C2=CC=CC=C1C=C1NC(=C2)C=CC=C1,5.23302146
4271,CUYYOK,C16 H16 N2,CN1C2=CC=CC=C1C=C1C=CC=CC(=C2)N1C,5.16281609
4272,CUYYOM,C42 H34,CC(C)(C)c1cc2ccc3cc(cc4c3c2c(c1)c1ccc2c3ccc5cccc6ccc(cc2c41)c3c56)C(C)(C)C,4.8626745
4273,CUYYUS,C36 H32,CC(C)(C)c1cc2ccc3cc(cc4c3c2c(c1)c1ccc2c3ccccc3ccc2c41)C(C)(C)C,5.63711053
4274,CUYZUT,C25 H16 Br2 N2 O2,CN1N=C(C(c2ccc(Br)cc2)C2=C1c1ccccc1C(=O)C2=O)c1ccc(Br)cc1,5.0602291600000004
4275,CUZDIL,C16 H11 I1 S1,Ic1cccc2cccc(Sc3ccccc3)c12,5.7584732999999995
4276,CUZHIQ,C22 H20 F1 N5 S1,CC(C)N1c2ccccc2C(=C1C=CC=NN1C=NNC1=S)c1ccc(F)cc1,5.35003042
4277,CUZHUC,C23 H24 Br1 N1 O5,CCOC(=O)CN1C2=C(C(c3cc(Br)ccc3O)C3=C1CCCC3=O)C(=O)CCC2,6.16337871
4278,CUZPAQ,C46 H33 N3,c1ccc(cc1)N(c1ccccc1)c1ccc(cc1)c1ccc(cc1)c1nc(c2ccccc2)c(nc1c1ccccc1)c1ccccc1,5.49152961
4279,CUZQAP,C15 H12 N4 O1 S1,Cc1ccc(cc1)C1=NN2C(=NN=C2C2=CC=CO2)SC1,5.87493803
4280,CUZQET,C14 H10 N4 O1 S1,C1SC2=NN=C(N2N=C1c1ccccc1)C1=CC=CO1,5.86378137
4281,CUZRAQ,C15 H12 N2 O2,COc1ccc(cc1)C=[N+]([O-])c1ccc(cc1)C#N,5.39520131
4282,CUZXUQ,C13 H10 O4,CC(=O)C1=C(O)C=C(OC1=O)c1ccccc1,6.0392948
4283,CVITAC,C19 H26 O2,CC1=C(C=CC(C)=CC=CC(C)=CC(O)=O)C(C)(C)CC1,5.03220144
4284,CXAEZT10,C30 H27 N1 O7,CCOC(=O)N1C=CC2C=CC1C1(c3ccccc3)C(=C(C(=O)OC)C(=O)C21C(=O)OC)c1ccccc1,5.97806919
4285,CXANTI,C29 H37 N3 O6,CNc1ccc2OC(=Nc2c1C(O)=O)CC1OC2(CCC1C)OC(C(C)CC2C)C(C)C(=O)C1=CC=CN1,6.00392
4286,CXMCYS,C5 H9 N1 O6 S1,[NH3+]C(CS(=O)(=O)CC(O)=O)C(=O)[O-],7.10380418
4287,CXMCYT,C5 H9 N1 O4 S1,[NH3+]C(CSCC(O)=O)C(=O)[O-],7.21237761
4288,CXPROL,C6 H9 N1 O4,OC(=O)C1C[NH2+]C(C1)C(=O)[O-],6.71740252
4289,CXQULO01,C10 H6 Cl1 N1 O3,OC(=O)c1cc(Cl)c2ccccc2[n+]1[O-],5.70595533
4290,CYANOF01,C18 H10 N2,N#CC(C#N)=C1C(=C1c1ccccc1)c1ccccc1,5.55765328
4291,CYBZTZ10,C15 H12 N4,Cc1ccc(cc1)N=NN=C(C#N)c1ccccc1,5.68908427
4292,CYMEBF20,C16 H6 Br2 N2,Brc1ccc2c3ccc(Br)cc3C(=C(C#N)C#N)c2c1,4.8711100400000005
4293,CYMHTP,C10 H2 N4 S1,N#CC(C#N)=C1SC(C=C1)=C(C#N)C#N,5.01070444
4294,CYMINM,C12 H9 N3,CC1=[N+](Cc2ccccc12)[C-](C#N)C#N,4.9418596400000006
4295,CYMPPC,C16 H16 N6,N#CC(C#N)=C1N=C(N2CCCC2)C(=C1N1CCCC1)C#N,5.04145331
4296,CYSTEA,C3 H7 N1 O5 S1,[NH3+]C(CS(=O)(=O)[O-])C(O)=O,6.16419506
4297,DABBER,C21 H14 N2 O3,CC1=Nc2cc(ccc2C(=O)O1)N1c2ccccc2Oc2ccccc12,5.3222748
4298,DABCEP,C15 H9 Cl2 N1 O3 S2,Cc1cc2c(SC(=NS2(=O)=O)C(=O)c2ccc(Cl)cc2)cc1Cl,6.07494172
4299,DABCES,C18 H16 O5 S1,COC(=O)c1ccc2c(CS(=O)Cc3cc(ccc23)C(=O)OC)c1,6.338075809999999
4300,DABCIS,C23 H27 N1 O6,COC1=CC=C2C(=CC1=O)C(CCc1cc(OC)c(OC)c(OC)c21)N(C)C(C)=O,5.91385031
4301,DABCIT,C22 H15 F3 N2 O1,COc1ccc(cc1)c1cccc2ncnc(c3ccc(cc3)C(F)(F)F)c12,5.98922585
4302,DABDOC,C28 H34 N4 O2,CCCCCc1ccc(NC(=O)c2cnc(cn2)C(=O)Nc2ccc(CCCCC)cc2)cc1,5.89534657
4303,DABKIC,C34 H22,c1ccc2c(c1)cccc2c1c2ccccc2c(c2cccc3ccccc23)c2ccccc12,5.4896248199999995
4304,DABLAV,C46 H41 N1 O1,CCCOc1cc2N(CCC)c3ccc(C=C(c4ccccc4)c4ccccc4)cc3c2cc1C=C(c1ccccc1)c1ccccc1,5.79466445
4305,DABLEX,C13 H8 Cl1 O1 P1,Clc1ccc(cc1)C1=Pc2ccccc2O1,5.8202431400000005
4306,DABLID,C27 H31 N1,CC(C)C1=CC=C(C)C2=C(C=CC=Cc3ccc(cc3)N(C)C)C=C(C)C2=C1,4.293684450000001
4307,DABLUP,C32 H35 N1 O4,CNc1ccc(cc1)C1C=CC(C2=C3C(=CC=C(C=C3C(=C2)C)C(C)C)C)C(=C1C(=O)OC)C(=O)OC,4.86974947
4308,DABNOM,C20 H15 N1 O6,CN1C=Cc2cc3OCOc3cc2C(=O)C21COc1c3OCOc3ccc21,5.90405422
4309,DABPOO,C18 H19 N3 S1,S=C(NCc1ccccc1)NN=C1CCCc2ccccc12,6.02596122
4310,DABPUU,C14 H17 N3 S1,C=CCNC(=S)NN=C1CCCc2ccccc12,5.99684504
4311,DABQUV,C28 H34 N4 S1,CCCCSc1nc(C=Cc2ccc(cc2)N(C)C)cc(C=Cc2ccc(cc2)N(C)C)n1,5.22540227
4312,DABREG,C22 H21 N3 O2,Cc1cccc(Nc2ccccc2C(=O)NN=Cc2ccccc2O)c1C,5.96609617
4313,DABWIO,C17 H20 N2 O1 S2,CN1C(=O)N(C)C2=C3C=C(C)SC3(C)C3(C)SC(=CC3=C12)C,4.60471058
4314,DACCAL10,C26 H32 N6,CN(C)c1nc(N(C)C)c(c2ccccc12)c1c2ccccc2c(nc1N(C)C)N(C)C,5.70595533
4315,DACDES,C30 H25 Br1 N2 O1,OC(C1[NH2+]C(c2ccc(Br)cc2)C2=C(C1c1ccccc1)c1ccccc1[N-]2)c1ccccc1,4.67845343
4316,DACDUJ,C30 H34 B2 F4 N4,CC1=C2C(=[N+]3C1=CC1=CC=C(N1[B-]3(F)F)C(C)(C)C)CCC1=[N+]3C(=CC4=CC=C(N4[B-]3(F)F)C(C)(C)C)C(=C21)C,4.086061579999999
4317,DACGAS,C33 H35 N3 O9,CCOC(=O)C(C(=O)OCC)C1=Cc2cc(OCc3ccccc3)cc(C(C(=O)OCC)C(=O)OCC)c2N1c1ncccn1,6.27793864
4318,DACKEA,C21 H19 N1 O4,CCOCC1=C2C=C(OC(=O)N2c2ccccc12)c1ccc(OC)cc1,5.76201079
4319,DACKIC,C16 H13 N1 O1 S1,COc1ccc(cc1)C1=CC(=S)c2ccccc2N1,5.092882830000001
4320,DACLEC,C13 H13 N5 O3,COc1cccc(C=NNC(=O)c2nccnc2N)c1O,6.31957207
4321,DACNOL,C28 H32 O4,CC(C)(C)OC(=O)C=CC(c1ccccc1)=C1C(Cc2ccccc12)C(=O)OC(C)(C)C,5.83548152
4322,DACQAB,C20 H26 N2 S3,CCC1=C(C)NC(=C1C)C(C1=C(C)C(=C(C)N1)CC)C1=CSC(=S)S1,5.93072137
4323,DACTAF,C12 H11 F1 N4 S1,CCSc1c(F)nnc2N=C3N(C=CC=C3C)c12,5.83793054
4324,DACYUD,C24 H19 Cl1 N2 O1,Clc1ccc(cc1)C=CC(=O)c1ccccc1C=NN1CCc2ccccc12,5.0117929000000006
4325,DACZAJ,C18 H14 O2 S1,CCc1cccc2C(=O)C(Sc12)=CC(=O)c1ccccc1,5.3200978899999996
4326,DACZAL,C26 H18 Br4 O6,COc1ccc(cc1)C=C1OC(=O)C(=C1c1cc(Br)c(O)c(Br)c1)C(O)c1cc(Br)c(OC)c(Br)c1,5.519013119999999
4327,DACZEN,C36 H28 O4 S2,CCc1cccc2C3=C(Sc12)C(C(C(=O)c1ccccc1)C1(O3)Sc2c(CC)cccc2C1=O)C(=O)c1ccccc1,5.802011520000001
4328,DADBIV,C21 H21 N1 O1,CN1C=CC=C1C1=C(C2C3CCC(C3)C2C1=O)c1ccccc1,5.814800870000001
4330,DADBOC,C13 H19 N5 S1,CC(=NNC(=S)NC1CCCCC1)c1cnccn1,5.772351110000001
4331,DADDAQ,C11 H13 N3 O2 S1,CC(=O)Oc1ccc(cc1)C(C)=NNC(N)=S,6.03793423
4332,DADDER01,C15 H10 O2,O=C1OC(=Cc2ccccc2)c2ccccc12,5.922285840000001
4333,DADDEU,C16 H15 N3 O2 S1,CC(=NNC(N)=S)c1ccc(OC(=O)c2ccccc2)cc1,5.98487203
4334,DADGIC,C24 H22 N4 O2 S2,Cc1ccc(cc1)S(=O)(=O)Nc1ccccc1NC=C1C(=NN(C1=S)c1ccccc1)C,4.96634988
4335,DADHID,C40 H28 O2 P2,O1c2ccccc2C(=C1C1=C(P(c2ccccc2)c2ccccc2)c2ccccc2O1)P(c1ccccc1)c1ccccc1,5.54976199
4336,DADLEZ,C7 H8 N2 O2,CC(=O)C1=C(N)C(=N)OC1=C,6.14814034
4337,DADQEH,C27 H22 Cl3 N3 S1,CC(C)c1ccc(cc1)C1CC(=NN1C1=NC(=CS1)c1ccc(Cl)cc1Cl)c1ccc(Cl)cc1,5.91929259
4338,DADQOR,C19 H20 Cl1 N3 S1,CC(C)c1ccc(cc1)C1CC(=NN1C(N)=S)c1ccc(Cl)cc1,5.72173793
4339,DADREJ,C32 H18 S2,S1c2cc3ccccc3cc2C2=C1c1cc3C4c5ccccc5C(c5ccccc45)c3cc1S2,5.5293534399999995
4340,DADRIK,C13 H8 Br2 N2,Brc1ccc(cc1)C(=[N+]=[N-])c1ccc(Br)cc1,6.16038546
4341,DADRIL,C18 H15 N1 O3,COC(=O)C=C1C(=O)N(Cc2ccccc2)c2ccccc12,5.72990135
4342,DADRUW01,C13 H4 Br6 N2,Brc1cc(Br)c(c(Br)c1)C(=[N+]=[N-])c1c(Br)cc(Br)cc1Br,6.22161108
4343,DADSAD01,C21 H22 Br4 N2,CC(C)(C)c1cc(Br)c(c(Br)c1)C(=[N+]=[N-])c1c(Br)cc(cc1Br)C(C)(C)C,6.330728730000001
4344,DADSEH,C19 H19 Br3 N2,Cc1cc(cc(C)c1C(=[N+]=[N-])c1c(Br)cc(Br)cc1Br)C(C)(C)C,6.22841393
4345,DADSIL,C23 H22 Br2 F6 N2,CC(C)(C)c1cc(Br)c(c(Br)c1)C(=[N+]=[N-])c1c(cc(cc1C(F)(F)F)C(C)(C)C)C(F)(F)F,6.28365303
4346,DADSOR,C33 H40 N2 O1,CN(C)c1ccc(cc1)C(=C=C=C1C=C(C(=O)C(=C1)C(C)(C)C)C(C)(C)C)c1ccc(cc1)N(C)C,3.6313593399999995
4347,DADSUX,C29 H30 O1,CC(C)(C)C1=CC(C=C(C1=O)C(C)(C)C)=C=C=C(c1ccccc1)c1ccccc1,3.99327076
4348,DADTAF,C26 H18 O2,CC(=O)Oc1ccc(cc1)C=Cc1ccc2ccc3cccc4ccc1c2c34,5.25288577
4349,DADTEH03,C19 H14 O5,COC(=O)C(=C1OC(=O)C(=C1O)c1ccccc1)c1ccccc1,5.63030768
4350,DADTEJ,C24 H15 Cl1,Clc1ccc(cc1)C=Cc1ccc2ccc3cccc4ccc1c2c34,5.1089375399999994
4351,DADWOX,C46 H46 N2 O4 S2,CCCCCCCCN1C(=O)c2cc(C3=Cc4ccccc4S3)c3C(=O)N(CCCCCCCC)C(=O)c4cc(C5=Cc6ccccc6S5)c(C1=O)c2c34,4.47055845
4352,DADYOY,C7 H6 O1 S1,OC1=CC=CC=CC1=S,5.18186406
4353,DADYUE,C8 H8 O1 S1,CSC1=CC=CC=CC1=O,5.76718095
4354,DADZAL,C8 H8 O1 S1,COC1=CC=CC=CC1=S,5.31656041
4355,DAFFUM,C20 H26 Br2 S7,CCCCCCSC1=C(SCCCCCC)SC(S1)=C1SC2=C(Br)SC(=C2S1)Br,5.66323346
4356,DAFHAT,C10 H12 S6,CSC1=C(C)SC(S1)=C1SC(=C(SC)S1)C,5.75330314
4357,DAFJAW,C22 H14 Cl1 N3 O1,Clc1ccc(cc1)C1=CC2=C(C#N)c3ccccc3C(=O)C2=C2NCCN12,5.59030695
4358,DAFLIH,C22 H24 O6,CCOC(=O)C1=Cc2cc(OC)c(OC)cc2c2cc(OC)c(OC)cc2C1,6.01643723
4359,DAFLON,C21 H20 O6,CCOC(=O)C1=Cc2cc(OC)ccc2c2cc(OC)c(OC)cc2C1=O,5.77915396
4360,DAFLUO,C13 H10 N2 O1,Nc1ccc2c3ccc(N)cc3C(=O)c2c1,4.92879817
4361,DAFMAA,C40 H40 O4,CC(C)(C)c1cc2Oc3c4c2c2c1Oc1cc(c5Oc6cc(c7Oc(cc3C(C)(C)C)c4c7c6c5c21)C(C)(C)C)C(C)(C)C,5.5693541799999995
4362,DAFMEE,C40 H40 O4,CC(C)(C)c1cc2Oc3cc(c4Oc5cc(c6Oc7c8c9c(Oc1c9c2c3c4c5c68)cc7C(C)(C)C)C(C)(C)C)C(C)(C)C,5.54704084
4363,DAFMOO,C19 H20 O2 S3,COCC1(COC)CC2=C(SC(=C2C1)C1=CC=CS1)C1=CC=CS1,5.43057611
4365,DAFPUY,C22 H26 N4 O2,CC1(C)CC(CC(C)(C)N1O)NC(=O)c1cc2cccnc2c2ncccc12,5.6384711
4367,DAFREK,C30 H25 N1 O1 S1,CCC1(CC)c2ccccc2c2ccc(cc12)N1c2ccccc2Sc2cc(C=O)ccc12,5.72309851
4368,DAFRUA,C17 H18 N2 O1,CN(C)c1ccc(cc1)C=Nc1ccc(cc1)C(C)=O,5.75602428
4369,DAFVUB,C26 H21 N3 O3,O=C1N(Cc2ccccc2)C2=C(N1Cc1ccccc1)C(=O)N(Cc1ccccc1)C2=O,5.74922143
4370,DAFXIR,C30 H20 S2,c1ccc(cc1)c1cc2c(sc3ccccc3c2c2ccccc2)c(s1)c1ccccc1,4.93015874
4371,DAGXIV,C27 H18,C1c2ccccc2c2ccc(cc12)c1ccc2cc3ccccc3cc2c1,5.3851331
4372,DAGXOB,C17 H18 O3,CCOC(=O)C1=C(C)C=C(c2ccccc2)C1=C(C)O,5.82568543
4373,DAGYES,C28 H18,c1ccc2cc3cc(ccc3cc2c1)c1ccc2cc3ccccc3cc2c1,4.9647172
4374,DAHKIG,C24 H22 N2 O6,COC(=O)CC1=CN2N(C(C(=O)OC)C(=C2c2ccccc12)C(=O)OC)c1ccccc1,5.71439086
4375,DAHKIJ,C24 H26 O7,COC(=O)C1(CC=C(C)C)OC(C)(C)C2CC(=O)C=C3C(=O)c4c(O)cccc4OC123,6.0499072400000005
4376,DAHKOP,C24 H26 O6,COC12C=C3C(=O)c4c(O)cccc4OC43CC1C(C)(C)OC2(CC=C(C)C)C4=O,6.1198405000000005
4377,DAHLIK,C28 H18 N2 O4,Cc1ccc(cc1)N1C(=O)c2ccc3C(=O)N(c4ccc(C)cc4)C(=O)c4ccc(C1=O)c2c34,5.54377548
4378,DAHLOQ,C20 H18 N2 O4,CCCN1C(=O)c2ccc3C(=O)N(CCC)C(=O)c4ccc(C1=O)c2c34,5.69615924
4379,DAHLUW,C34 H30 N2 O4,CC(C)(C)c1ccc(cc1)N1C(=O)c2ccc3C(=O)N(c4ccc(cc4)C(C)(C)C)C(=O)c4ccc(C1=O)c2c34,5.654525820000001
4380,DAHMUX,C16 H10 N2 O4,CN1C(=O)c2ccc3C(=O)N(C)C(=O)c4ccc(C1=O)c2c34,5.7192889099999995
4381,DAHNEF,C18 H11 Br1,BrC=Cc1ccc2ccc3cccc4ccc1c2c34,5.4006436
4382,DAHNIM,C26 H20 N1 O2 P1,O=Cc1ccccc1NC(=O)c1ccccc1P(c1ccccc1)c1ccccc1,5.723642740000001
4383,DAHPUX,C18 H10 N2 S2,S1c2ccccc2N=C2C=C3Sc4ccccc4N=C3C=C12,4.094225
4384,DAHROT,C16 H14 N2 O2 S2,COc1ccc(cc1)C1=NSC(=NS1)c1ccc(OC)cc1,6.29290491
4385,DAHVOA,C21 H22 N4 O1,CCCCC(=O)C(=NNc1cccc2cccnc12)c1ncccc1C,5.788133709999999
4386,DAHYUJ,C30 H16 O2,O1c2ccc3ccccc3c2c2c1ccc1ccc3Oc4ccc5ccccc5c4c3c21,5.65588639
4387,DAJBAU,C30 H36 O4,COC1=CC(=C(C(=O)c2ccccc2)C(=O)C1(CC(CC=C)C(C)=C)CC(CC=C)C(C)=C)O,6.25644165
4388,DAJDUP,C26 H25 N5,C1CCc2nc(ccc2C1)N=C1NC(=Nc2ccc3CCCCc3n2)c2ccccc12,5.47302588
4389,DAJMIL,C19 H16 N6 S1,CCN(CC)c1ccc(cc1)N=NC1=CC=C(S1)C(C#N)=C(C#N)C#N,3.984291
4390,DAJMUX,C14 H17 N3 S1,CCN(CC)c1ccc(cc1)N=NC1=CC=CS1,5.734255170000001
4391,DAJWER,C16 H16 N12 O8,CC1OC2=NON=C2N=NC2=NON=C2OC(C)C(C)OC2=NON=C2N=NC2=NON=C2OC1C,6.852915209999999
4392,DAJWIV,C6 H6 N6 O4,COC1=NON=C1N=NC1=NON=C1OC,7.071422629999999
4393,DAJXAN,C21 H21 N1 O6,COc1cc2CC=C(NC(C)=O)C3=C(C=CC(=O)C(=C3)O)c2c(OC)c1OC,5.648267189999999
4394,DAJXIW,C26 H20 N2 O1 S1,CC(C)(C)c1ccc(cc1)C1=NN=C(O1)c1ccc(cc1)C#CC1=CC=C(S1)C#C,5.65153256
4395,DAJZAS,C22 H17 Cl1 N4 O2 S1,CC1=NN(C(=O)C1=C(NNC(=O)C1=CC=CS1)c1ccc(Cl)cc1)c1ccccc1,5.578333929999999
4396,DAKBAT,C17 H17 Br1 N2 O1,BrC1=CN2C(=NC(=O)C3=C2C2CC4CC(C2)CC3C4)C=C1,6.08283301
4397,DAKBEW01,C16 H22 N4 S1,CC(=[NH+]N=C([S-])N1CC2CCC(CC2)C1)c1ccccn1,5.067576239999999
4398,DAKBEX,C17 H17 Cl1 N2 O1,ClC1=CN2C(=NC(=O)C3=C2C2CC4CC(C2)CC3C4)C=C1,6.06242447
4399,DAKBIA,C16 H22 N4 Se1,CC(=[NH+]N=C([Se-])N1CC2CCC(CC2)C1)c1ccccn1,4.679541889999999
4400,DAKCOH,C18 H24 N4 O1 S1,CCN(CC)C(=S)C1(C)C(=O)C(=NN=C1N(C)C)c1ccccc1,5.68881215
4401,DAKDAU,C24 H18 O8,COC1=CC(=O)c2cc(C)c(c(O)c2C1=O)c1c(C)cc(O)c2C(=O)C(=CC(=O)c12)OC,5.753847370000001
4402,DAKGED,C33 H27 N1 O4 S3,CC1=C(c2ccccc2)S(=O)(=O)C2(C)C1=C1SC(=NC1=C1C(=C(c3ccccc3)S(=O)(=O)C21C)C)c1ccccc1,4.33667843
4403,DAKGIH,C29 H22 F6 O4 S2,CC1=C(c2ccccc2)S(=O)(=O)C2(C)C1=C1C(=C3C(=C(c4ccccc4)S(=O)(=O)C23C)C)C(F)(F)C(F)(F)C1(F)F,4.82185743
4404,DAKSAM,C31 H21 Br1 Cl2 I1 N3 O1,CCN1C(=O)C(=NN=C(C(I)=C(c2ccc(Cl)cc2)c2ccc(Cl)cc2)c2ccccc2)c2cc(Br)ccc12,5.708404359999999
4405,DAKSEQ,C31 H22 Cl3 N3 O1,CCN1C(=O)C(=NN=C(C=C(c2ccc(Cl)cc2)c2ccc(Cl)cc2)c2ccccc2)c2cc(Cl)ccc12,5.65670273
4413,DAKXIX,C14 H6 Cl2 N2 O1,ClC1=C(Cl)C2=Nc3cccc4cccc(N2C1=O)c34,4.765529859999999
4414,DAKXUJ,C19 H16 O2 S2,Cc1ccc(SC2=C(Sc3ccc(C)cc3)C(=O)CC2=O)cc1,5.5296255599999995
4415,DAKZOF,C21 H12 O3,Oc1c2ccccc2cc2Oc3c(ccc4ccccc34)C(=O)c12,5.67493435
4416,DALCIF,C12 H14 N2 S1,CNC1=CC(=S)CC(N1)c1ccccc1,5.65017199
4417,DALFUU,C17 H11 Br1 N2 O2,CN1c2ccccc2c2c1nc1ccc(Br)cc1c2C(O)=O,5.67683915
4418,DALKAF,C41 H41 N1 O1,CN(C)c1ccc(cc1)c1cc(c2ccc(cc2)C(C)(C)C)c2C(=O)c3ccccc3c2c1c1ccc(cc1)C(C)(C)C,5.1402306399999995
4419,DALKEJ,C16 H14 Br1 N3 O3,COc1ncnc(OC)c1C=C1C(=O)N(C)c2ccc(Br)cc12,5.7598338700000005
4420,DALTOZ,C18 H18 O4,COc1cc2CCC3=CC(=O)C=C(CCc1cc2OC)C3=O,4.83410256
4421,DALTUG,C21 H13 N1 O1,ON=C1c2c3ccccc3ccc2c2ccc3ccccc3c12,5.2417291
4422,DALVAN,C16 H12 O4,O=C1C=C2CCC3=CC(=O)C(=CC3=O)CCC(=C1)C2=O,6.38460727
4423,DALVER,C20 H22 O4,COc1cc2CCCC3=CC(=O)C=C(CCCc1cc2OC)C3=O,4.83546312
4424,DALZIZ,C23 H18 N2 O5 S1,Cc1ccc(cc1)S(=O)(=O)Oc1ccc2N(CCO)N=C3c4ccccc4C(=O)c1c23,5.652893129999999
4425,DAMHPY01,C22 H20 O4,CC(=O)OC1=CC2=CC=C3C=C(OC(C)=O)C=C4C=CC(=C1)C2(C)C34C,4.51845048
4426,DAMMUA,C22 H26 O4,CC1(C)C2CCC1(C)C(C2)OC(=O)C=CC=Cc1ccc2OCOc2c1,5.90323787
4428,DAMQIU,C32 H22 Br8 N2,CCCCN1c2c(Br)cc(Br)c3c4c(Br)cc(Br)c5N(CCCC)c6c(Br)cc(Br)c(c7c(Br)cc(Br)c1c7c23)c6c45,5.313022930000001
4429,DAMQOX,C23 H14,C1C23C4=CC=C5c6ccccc6C(=CC=C2c2ccccc42)C135,4.68743319
4430,DANBUR,C29 H23 N3 O1,CN1C(=O)C(=C(Nc2ccccc2)C(=Nc2ccccc2)c2ccccc2)c2ccccc12,5.5886742599999994
4431,DANJIO,C25 H23 N1 O3,CCCCN1C(=O)c2cccc3c(C=Cc4ccc(OC)cc4)ccc(C1=O)c23,5.05832436
4432,DANJOU,C26 H25 N1 O4,CCCCN1C(=O)c2cccc3c(C=Cc4ccc(OC)c(OC)c4)ccc(C1=O)c23,4.9481182499999985
4433,DANJUA,C26 H26 N2 O2,CCCCN1C(=O)c2cccc3c(C=Cc4ccc(cc4)N(C)C)ccc(C1=O)c23,4.70702539
4434,DANQOB,C28 H28 N2 O2,COc1ccc(cc1)C=C1CCCC2C(N(N=C12)c1ccccc1)c1ccc(OC)cc1,5.8289508
4435,DANRUH,C14 H16 N2 O5 S1,CC1(C)CC(=O)C(=NNc2ccccc2S(O)(=O)=O)C(=O)C1,6.01208342
4436,DANTEN15,C28 H16 O2,O=C1c2ccccc2C(c2ccccc12)=C1c2ccccc2C(=O)c2ccccc12,5.6915333
4437,DANVOD,C19 H18 O2 S4,O=C1C=CC(=C2SCCCS2)C23CC12C(C=CC3=O)=C1SCCCS1,5.46050864
4438,DANYOH,C28 H19 Br1 O3,CCC1=C(CC)C(=O)c2c(ccc3ccc4Oc5ccc6ccc(Br)cc6c5c4c23)C1=O,5.031385090000001
4439,DANYUN,C28 H19 Br1 O2 S1,CCC1=C(CC)C(=O)c2c(ccc3ccc4Sc5ccc6ccc(Br)cc6c5c4c23)C1=O,4.98349306
4440,DANYUP,C19 H20 O5,COc1ccc(cc1)C(=O)C=Cc1cc(OC)c(OC)cc1OC,5.91629934