,ID,formula,smiles,HOMO_LUMO_gap
9573,GORTIQ,C26 H16 N2,Cc1cc(C)c2c(ccc3ccc4ccc5c(ccc(C#N)c5c4c23)C#N)c1,5.25070886
9574,GORTOW,C25 H14 N2,Cc1ccc2ccc3ccc4ccc5c(ccc(C#N)c5c4c3c2c1)C#N,5.36962261
9575,GORTUF,C20 H20 F1 N5 O6 S3,COc1ccc(cc1)S(=O)(=O)N1N=C(NS(=O)(=O)c2ccc(F)cc2)C(=N1)C(=S)N1CCOCC1,6.2297745
9576,GORVAN,C26 H19 N3 O3 S1,Cc1nc2SC(=C(N)c2c(C2=CC=CO2)c1C(=O)Nc1ccccc1)C(=O)c1ccccc1,5.2509809700000005
9577,GORVEQ,C38 H28 S4,CC1=CC=C(S1)c1c2ccccc2c(C2=CC=C(C)S2)c2c(C3=CC=C(C)S3)c3ccccc3c(C3=CC=C(C)S3)c12,4.14048435
9578,GORVIU,C34 H20 O4,O1C=CC=C1c1c2ccccc2c(C2=CC=CO2)c2c(C3=CC=CO3)c3ccccc3c(C3=CC=CO3)c12,4.36606673
9579,GORVIV,C29 H21 Cl2 N3 O2 S1,Cc1ccc(cc1)C(=O)C1=C(N)c2c(S1)nc(C)c(C(=O)Nc1ccc(Cl)cc1)c2c1ccccc1Cl,5.617246209999999
9580,GORVUG,C38 H28 O4,CC1=CC=C(O1)c1c2ccccc2c(C2=CC=C(C)O2)c2c(C3=CC=C(C)O3)c3ccccc3c(C3=CC=C(C)O3)c12,4.14021224
9581,GORWER,C30 H21 N5 S1,Cc1ccc(cc1)N(c1ccc(C)cc1)c1ccc(cc1)C1=CC=C(C=C(C#N)C#N)C2=NSN=C12,4.0506867799999995
9582,GORWOZ,C36 H42 N4,CN(C)c1ccc(cc1)C(=CC=C(c1ccc(cc1)N(C)C)c1ccc(cc1)N(C)C)c1ccc(cc1)N(C)C,5.2994172399999995
9583,GORWUH,C28 H19 N5 O1 S1,Cc1ccc(cc1)N(C1=CC=C(S1)C1=CC=C(C=C(C#N)C#N)C2=NON=C12)c1ccc(C)cc1,3.89150018
9584,GORXES,C30 H21 N5 O1,Cc1ccc(cc1)N(c1ccc(C)cc1)c1ccc(cc1)C1=CC=C(C=C(C#N)C#N)C2=NON=C12,3.91190872
9585,GORYAQ,C11 H8 F3 N3 O1,CC1=Nc2cccnc2NC1=CC(=O)C(F)(F)F,5.48635945
9586,GOSPUC,C11 H7 Br1 O4,CC(=O)C1=C(O)c2cc(Br)ccc2OC1=O,6.22324376
9587,GOSRUE,C22 H16 N4,c1ccc2N(c3ccncc3)c3ccccc3N(c3ccncc3)c2c1,5.78622892
9588,GOSVAL,C15 H8 O3,O=C1C=CC(C=C1)=C1C(=O)c2ccccc2C1=O,5.507040109999999
9589,GOSVEP,C21 H15 Cl1 O2 S1,ClC1C2CC(C1Sc1ccccc1)C1=C2C(=O)c2ccccc2C1=O,4.911655
9590,GOTBAV,C21 H16 Br1 N1 O3 S1,Brc1ccccc1C=CC(=O)c1ccccc1NS(=O)(=O)c1ccccc1,6.06759464
9591,GOTRIQ,C22 H25 N1 O6,CCOC(=O)CC12C(Nc3ccccc13)C1C(=CC2C(=O)C1(OC)OC)C(C)=O,5.64989988
9592,GOTVIX,C13 H14 O3,COC1=CC(=O)C2(C)C(C)C=CC=C2C1=O,5.75711274
9593,GOTYOG,C31 H19 N1 O1,O=C(Nc1ccc(cc1)C#Cc1ccc2ccc3cccc4ccc1c2c34)c1ccccc1,5.193564950000001
9594,GOTZUM,C39 H25 N1 O2,Oc1ccc2ccccc2c1c1c(ccc2ccccc12)N=Cc1ccc2ccc3cc4ccccc4cc3c2c1O,5.1709795
9595,GOVBEB,C27 H18 N2,N#CC(=Cc1ccc(cc1)N1c2ccccc2c2ccccc12)c1ccccc1,5.322274800000001
9596,GOVBIF,C27 H18 N2,N#CC(=Cc1ccc(cc1)N1c2ccccc2c2ccccc12)c1ccccc1,5.3693505
9597,GOVBOL,C27 H17 F1 N2,Fc1cccc(c1)C(=Cc1ccc(cc1)N1c2ccccc2c2ccccc12)C#N,5.2319330100000006
9598,GOVBUR,C27 H17 Cl1 N2,Clc1cccc(c1)C(=Cc1ccc(cc1)N1c2ccccc2c2ccccc12)C#N,5.21778309
9599,GOVCEC,C27 H17 F1 N2,Fc1ccc(cc1)C(=Cc1ccc(cc1)N1c2ccccc2c2ccccc12)C#N,5.2605049600000005
9600,GOVCOM,C27 H17 Cl1 N2,Clc1ccc(cc1)C(=Cc1ccc(cc1)N1c2ccccc2c2ccccc12)C#N,5.3097575699999995
9601,GOVDAZ,C27 H17 Br1 N2,Brc1cccc(c1)C(=Cc1ccc(cc1)N1c2ccccc2c2ccccc12)C#N,5.1894832499999985
9602,GOVDED,C27 H17 Br1 N2,Brc1ccc(cc1)C(=Cc1ccc(cc1)N1c2ccccc2c2ccccc12)C#N,5.25669536
9603,GOVHIK,C20 H20 O4 S1,COc1ccc(CC2=CS(=O)(=O)CC=C2c2ccccc2)c(OC)c1,5.572075320000001
9604,GOVNOX,C18 H14 Cl2 N2 O1,CC1=NC(=CN1CC(=O)c1ccc(Cl)cc1)c1ccc(Cl)cc1,5.53588417
9605,GOVNUD,C18 H14 F2 N2 O1,CC1=NC(=CN1CC(=O)c1ccc(F)cc1)c1ccc(F)cc1,5.72228217
9606,GOVPAL,C18 H12 Cl4 N2 O1,CC1=NC(=CN1CC(=O)c1ccc(Cl)cc1Cl)c1ccc(Cl)cc1Cl,5.80037883
9607,GOVQEQ,C37 H21 N1,c1cc2ccc3ccc(c4cccc(n4)c4ccc5ccc6cccc7ccc4c5c67)c4ccc(c1)c2c34,5.449079859999999
9608,GOVQIU,C37 H21 N1,c1cc2ccc3ccc(c4cncc(c4)c4ccc5ccc6cccc7ccc4c5c67)c4ccc(c1)c2c34,5.492073850000001
9609,GOVTIX,C27 H20 N2 O4,COC(=O)C1(O)CC(c2ccccc2)c2c(O1)c1ccccc1c1nc3ccccc3nc21,5.7878616
9610,GOVVEV,C29 H20 O2,O=C1OC(=C(c2ccccc2)C(=C1c1ccccc1)c1ccccc1)c1ccccc1,5.882012990000001
9611,GOVVOF,C31 H20 O2,O=C1OC(=C(C#Cc2ccccc2)C(=C1c1ccccc1)c1ccccc1)c1ccccc1,5.7086764699999994
9612,GOVWIA,C14 H9 N1 O2 S1,O=C1NC(=CC(=O)C2=CC=CS2)c2ccccc12,6.0207910600000005
9613,GOVWOD01,C12 H11 N1 O3 S1,CCOc1ccc(cc1)C=C1SC(=O)NC1=O,5.92446275
9614,GOVWOG,C34 H25 N3 O4,COc1ccc(cc1)C(=O)C=C1NC(=NC2=NC(=CC(=O)c3ccc(OC)cc3)c3ccccc23)c2ccccc12,4.98186037
9615,GOVXIY02,C11 H9 N1 O2 S2,COc1ccc(cc1)C=C1SC(=S)NC1=O,5.54595239
9616,GOVXUN,C49 H30 O1,OC1(c2ccccc2)c2cccc3c4cccc5c(cc6c(c7ccccc7)c7cc(cc1c7c(c23)c6c45)c1ccccc1)c1ccccc1,4.99573818
9617,GOWLIQ,C43 H50 N6,CCC1=C2NC(=C1CC)c1cccc(n1)C1=C(CC)C(=C(N1)C=C1N=C(C(=C1CC)C)C1=C(C)C(=C(N1)C1=NC(=C2)C(=C1C)CC)C)CC,4.072728000000001
9618,GOWNEO,C23 H15 N3 O1,O=C(NN=Cc1ccc2ccc3cccc4ccc1c2c34)c1ccccn1,5.301594150000001
9619,GOWRES,C11 H9 F3 N2 O3,Cc1ccc(NN=C(C(O)=O)C(=O)C(F)(F)F)cc1,5.815889329999999
9620,GOWZAV,C21 H19 O1 P1 S2,CC(SC(=S)P(=O)(c1ccccc1)c1ccccc1)c1ccccc1,5.98079032
9621,GOWZIB,C18 H16 O6,CCCC1OC2CC(=O)OC2C2=C1C(=O)C1=C(O)C=CC=C1C2=O,6.0314035
9622,GOXLAI,C17 H20 N2 O1,CC(C)c1ccc(C)c(C=Nc2ccccc2N)c1O,5.64554606
9623,GOXMOY,C35 H25 B1 F2 O2,F[B-]1(F)OC(=CC(=[O+]1)c1ccccc1)c1ccc(cc1)C(c1ccccc1)=C(c1ccccc1)c1ccccc1,4.843354429999999
9624,GOXNIS,C15 H11 N3 O1 S1,NC(=S)[NH+]=Nc1c([O-])c2ccccc2c2ccccc12,4.809340199999999
9625,GOXNIT,C20 H14 N2 O1,O=C(Nc1ccccn1)c1c2ccccc2cc2ccccc12,5.73316671
9626,GOXNOY,C16 H13 N3 O1 S1,CNC(=S)[NH+]=Nc1c([O-])c2ccccc2c2ccccc12,4.86158606
9627,GOXQAO,C44 H26,c1ccc2cc3c(cc2c1)C(c1ccccc1C3=C1c2ccccc2c2ccccc12)=C1c2ccccc2c2ccccc12,5.72663598
9628,GOXQER,C25 H17 N1 O2,OC1c2ccccc2C2=CC=C3N(C(=O)c4ccccc34)C12c1ccccc1,5.15193153
9629,GOXQES,C40 H24,c1ccc2c(c1)c1ccccc1C2=C1c2ccccc2C(c2ccccc12)=C1c2ccccc2c2ccccc12,5.718744689999999
9630,GOXQIV,C21 H17 N1 O2,CC1=C2c3ccccc3C(O)C2(C)N2C(=O)c3ccccc3C2=C1,5.04988884
9631,GOXQIW,C48 H28,c1ccc2cc3c(cc2c1)C(c1cc2ccccc2cc1C3=C1c2ccccc2c2ccccc12)=C1c2ccccc2c2ccccc12,5.65098834
9632,GOXRUI,C21 H26 N2 O1 S1,Cc1cc(C)c(N2CCN(C2=S=O)c2c(C)cc(C)cc2C)c(C)c1,6.0294987
9633,GOXWAU,C21 H21 P1,CCC=P(c1ccccc1)(c1ccccc1)c1ccccc1,5.33424781
9634,GOXWEY,C28 H27 O1 P1,C(CC=P(c1ccccc1)(c1ccccc1)c1ccccc1)OCc1ccccc1,5.5097612499999995
9635,GOXXEY,C20 H14 N8 O2,O=C(Nc1cccnc1c1ncccc1NC(=O)c1cnccn1)c1cnccn1,6.02324008
9636,GOYBAX,C20 H18 Cl2 N6 O2,CCCN1C(=O)c2cc(Cl)nnc2N(Cc2ccc(OC)cc2)c2nnc(Cl)cc12,5.798746159999999
9637,GOYBEB,C20 H18 Cl2 N6 O2,CCCN1C(=O)c2cc(Cl)nnc2N(Cc2ccc(OC)cc2)c2cc(Cl)nnc12,6.26787043
9638,GOYFOP,C15 H18 N2 O3,COc1cccc(NC2=C(N=O)C(=O)CC(C)(C)C2)c1,6.047458219999999
9639,GOYMOZ,C17 H12 Br1 N1 O1,Brc1ccc2C=C(OC(=Nc3ccccc3)c2c1)C=C,5.91929259
9640,GOYQOC,C12 H6 S2,S1Sc2ccc3C=Cc4ccc1c2c34,5.24118488
9641,GOYTIA,C22 H19 I1 N2 O1,COc1ccc(NC=CC(=Nc2ccccc2I)c2ccccc2)cc1,5.515475640000002
9642,GOYVAU,C21 H16 I2 N2,Ic1ccccc1NC=CC(=Nc1ccccc1I)c1ccccc1,5.78514046
9643,GOYVIC,C43 H40 N2 O4,CCOC(=O)C(C1=CC(=O)C=C(O1)c1ccccc1)(c1ccc(cc1)N(CC)c1ccccc1)c1ccc(cc1)N(CC)c1ccccc1,5.72391484
9644,GOYVUO,C19 H13 N1 O2,OC(c1ccccc1)=C1Cc2nc3ccccc3cc2C1=O,5.923374300000001
9645,GOYZOJ,C28 H28 N4 S4,CSC(=S)N(c1ccc(C)cc1)C1=C(N(C)C(=N1)c1ccccc1)N(C(=S)SC)c1ccc(C)cc1,6.2730406
9646,GOYZUP,C38 H40 N4 O8,COC(=O)C1=C(C(=O)OC)C(=C(C(=O)OC)C2(N(C)C(=C(N(C)c3ccc(C)cc3)N12)N(C)c1ccc(C)cc1)c1ccccc1)C(=O)OC,5.45044043
9647,GOZFAE,C14 H9 N3,C1=CC2=CN3N=C4C=CC=CC4=C3N=C2C=C1,4.95655379
9648,GOZFOS,C15 H11 N3 O5,NC(=O)c1ccccc1NC(=O)c1cc2OCOc2cc1N=O,5.824324860000001
9649,GOZFUY,C16 H11 N3 O4,CN1C(=O)c2ccccc2N=C1c1cc2OCOc2cc1N=O,5.5900348300000005
9650,GOZGAF,C16 H15 N3 O2,OCCN1N=C(Nc2ccccc2C=O)c2ccccc12,5.716839889999999
9651,GOZHOS,C38 H30,c1ccc(cc1)C=Cc1ccc(cc1)C=Cc1ccc(C=Cc2ccc(C=Cc3ccccc3)cc2)cc1,5.2240417
9652,GOZJUD,C34 H28 I1 N1 O2,CCN1c2ccccc2C2=C1C(=C(I)c1ccccc1)C(=C2c1ccc(OC)cc1)c1ccc(OC)cc1,4.93832216
9653,GOZKOV,C22 H20 Br1 N1 O3,CN1C(=O)C2=C3C(=CC=CC=C13)C(CC2(C)C)OC(=O)c1ccc(Br)cc1,5.571803210000001
9654,GOZLAL,C34 H32 N2 O6,CCCCN1C(=O)c2cccc3c2c(cc(OC)c3c2c(OC)cc3C(=O)N(CCCC)C(=O)c4cccc2c34)C1=O,5.403364720000001
9655,GOZMEQ,C32 H28 N2 O6,CCCCN1C(=O)c2cccc3c(c(O)cc(C1=O)c23)c1c(O)cc2C(=O)N(CCCC)C(=O)c3cccc1c23,5.69806403
9656,GOZQIX01,C10 H13 N3 O2 S1,CNC(=S)NN=Cc1cc(OC)ccc1O,5.88337356
9657,GOZZAZ,C24 H18 N6 O1,Cc1ccc(cc1Nc1nccc(n1)c1cccnc1)N=C1C(=O)Nc2ccccc12,5.53479572
9658,GOZZEA,C18 H15 N5,Cc1ccc(cc1)N1N=C(C)C2=C1N=NC(=N2)c1ccccc1,5.53914954
9659,GUACET03,C3 H7 N3 O2,NC(=[NH2+])NCC(=O)[O-],6.47522118
9660,GUAYAC,C30 H24 O4,CC1(C)Oc2c3ccccc3c3Oc4c5ccccc5c(O)c5OC(C)(C)C=C(c45)c3c2C=C1,5.57942239
9661,GUBCAJ,C25 H25 N1 O2,CCCCN1c2ccccc2C(C)(C)C1=CC=C1C(=O)c2ccccc2C1=O,5.04934461
9662,GUBCEN,C28 H25 N3 O1,CCCCN1c2ccccc2C(C)(C)C1=CC=C1C(=O)c2ccccc2C1=C(C#N)C#N,4.57287326
9663,GUBCIR,C23 H24 N4 S1,CN1c2ccccc2C(C)(C)C1=CC=C1SC(N=C1C(C)(C)C)=C(C#N)C#N,3.91136449
9664,GUBCOX,C28 H34 N4 S1,CCCCCCN1c2ccccc2C(C)(C)C1=CC=C1SC(N=C1C(C)(C)C)=C(C#N)C#N,3.9285076599999997
9665,GUBDAK,C24 H27 N3 O2,CCCCN1C(=O)C(=CC=C2N(C)c3ccccc3C2(C)C)C(=C(C#N)C1=O)C,4.65287473
9666,GUBFUG,C19 H17 F1 N4 O1,CC(=O)c1ccc(cc1)N=NC1=C(C)N(N=C1C)c1ccc(F)cc1,5.90242154
9667,GUBGUF,C26 H20 O9,CC(=O)Oc1cccc2C(=O)c3c4c(OC(C)=O)cc(C)c(OC(C)=O)c4cc(OC(C)=O)c3c12,5.4066301
9668,GUBHUG,C40 H29 N5,Cc1ccc(cc1)N=C1N(c2ccc(C)cc2)C(c2ccccc12)=C1N(c2ccc(C)cc2)C(c2ccccc12)=C(C#N)C#N,4.10429321
9669,GUBJOF,C14 H24 N4 O6,O=C([O-])C[NH+]1CC[NH+](CC(=O)[O-])CC(=O)NCCCCNC(=O)C1,6.80230203
9670,GUBKOF,C16 H10 F3 N1 O1,FC(F)(F)c1ccc(cc1)c1cccc2ccc[n+]([O-])c12,5.81507298
9672,GUBTOO,C28 H28 N4 O10,COC(=O)C(C)NC(=O)C(C)N1C(=O)c2ccc3C(=O)N(C(C)C(=O)NC(C)C(=O)OC)C(=O)c4ccc(C1=O)c2c34,5.56173499
9673,GUBVOQ,C22 H19 F4 N1 O4,COc1ccc(cc1)C(=O)CC(N1C(=O)c2c(F)c(F)c(F)c(F)c2C1=O)C(C)(C)C,6.12909237
9674,GUBYIN,C28 H19 N7 O1,COc1ccc(cc1)C1=NN(N=C1)c1cccc2cccc(N3N=CC(=N3)c3ccc(cc3)C#N)c12,6.03385252
9675,GUCDAL,C18 H12 N4 S2,CC1(CC(=C(C#N)C(N1)=C(C#N)C#N)C1=CC=CS1)C1=CC=CS1,5.37071106
9676,GUCDEP,C22 H14 Cl2 N4,CC1(CC(=C(C#N)C(N1)=C(C#N)C#N)c1ccc(Cl)cc1)c1ccc(Cl)cc1,5.74595607
9678,GUCGUI,C25 H23 N3 O3,COc1ccccc1C1CN(C)C2(C1C(=O)c1ccccn1)C(=O)Nc1ccccc21,6.23167929
9680,GUCHIX,C23 H19 Cl1 N2 O2 S1,CN1CC(C(C(=O)C2=CC=CS2)C21C(=O)Nc1ccccc21)c1ccc(Cl)cc1,6.76583878
9682,GUCJUL,C18 H15 N1 O2,CC1(C)CC(=O)C2=Cc3cc4ccccc4nc3OC2=C1,5.29479131
9683,GUCLAR,C32 H50 Br1 N5 O7,CC(C)C(NC(=O)C(C)(C)NC(=O)C(C)(C)NC(=O)C(C)(C)NC(=O)C(C)(C)NC(=O)c1ccc(Br)cc1)C(=O)OC(C)(C)C,5.5094891299999995
9684,GUCLEV,C32 H50 I1 N5 O7,CC(C)C(NC(=O)C(C)(C)NC(=O)C(C)(C)NC(=O)C(C)(C)NC(=O)C(C)(C)NC(=O)c1ccc(I)cc1)C(=O)OC(C)(C)C,6.1592970099999995
9685,GUCLIZ,C33 H53 N5 O7,CC(C)C(C)(NC(=O)C(C)(C)NC(=O)C(C)(C)NC(=O)C(C)(C)NC(=O)C(C)(C)NC(=O)c1ccccc1)C(=O)OC(C)(C)C,6.496718180000002
9686,GUCLOF,C33 H52 Br1 N5 O7,CC(C)C(C)(NC(=O)C(C)(C)NC(=O)C(C)(C)NC(=O)C(C)(C)NC(=O)C(C)(C)NC(=O)c1ccc(Br)cc1)C(=O)OC(C)(C)C,6.207461159999999
9687,GUCPIF,C41 H35 N1 O4,CCCN1C(=O)c2c3CCc4cc(c(OC)cc4c3c3c(CCc4cc(c(OC)cc34)c3ccccc3)c2C1=O)c1ccccc1,5.26948471
9688,GUCQEC,C26 H18 N6 S3,CCCN1C2=C(SC(=C2)C=C(C#N)C#N)C2=C1C1=C(S2)C2=C(C=C(S2)C=C(C#N)C#N)N1CCC,4.1217085
9689,GUCTED,C20 H16 O4,OC1C(O)C(O)c2c(cc3ccc4cccc5ccc2c3c45)C1O,5.5805108500000005
9690,GUCVIL,C22 H23 N3 O3 S1,CCOC(=O)C1=C(NC2=CC(=NN(C)C2=O)c2ccccc2)SC2=C1CCCC2,5.75384737
9691,GUCWEG,C26 H18 S6,CC1=C(SC(=C1)C1=CC=C(S1)C1=CC=CS1)C1=C(C)C=C(S1)C1=CC=C(S1)C1=CC=CS1,4.95900282
9692,GUCWEJ,C18 H23 N3 O2,CN1CCC2(CC1)N=C(C)C(=O)N(C2=O)c1c(C)cccc1C,6.53127664
9693,GUCWOQ,C28 H22 S6,CC1=C(SC(=C1)C1=CC=CS1)C1=C(C)C=C(S1)C1=CC(=C(S1)C1=C(C)C=C(S1)C1=CC=CS1)C,4.86675621
9695,GUDBOZ,C31 H19 N3,c1ccc2c(c1)N(c1ccccc21)c1cccc2N3c4ccccc4c4ccccc4C3=Nc12,5.617518329999999
9696,GUDBUF,C31 H19 N3,c1ccc2N3c4ccccc4c4cccc(N5c6ccccc6c6ccccc56)c4C3=Nc2c1,5.6188789
9697,GUDCUG,C32 H16 F8,Fc1cc(F)cc(c1)C1=C2C(=C(CC1)c1cc(F)cc(F)c1)C(=C2c1cc(F)cc(F)c1)c1cc(F)cc(F)c1,5.720921590000001
9698,GUDJUL,C18 H10 I2 S2,IC1=CC=C(S1)C1=C2C=CC=CC=C2C(=C1)C1=CC=C(I)S1,4.59872408
9699,GUDKAS,C18 H12 O2,O1C=CC=C1C1=C2C=CC=CC=C2C(=C1)C1=CC=CO1,4.5511041500000005
9700,GUDKIC,C13 H14 I1 N3,CN1C(=CC(=C1C)N=Nc1ccc(I)cc1)C,5.95602796
9701,GUDKOI,C20 H18 F3 N3,CN1C(=CC(=C1C)N=Nc1ccc(cc1)c1ccc(cc1)C(F)(F)F)C,5.68636313
9702,GUDLAV,C27 H16 Br1 N1 O2 S1,Brc1ccc(cc1)S(=O)(=O)C1=C(c2ccccc2)c2nc3ccccc3c3cccc1c23,5.744595500000001
9706,GUDNOJ,C28 H24 N4,CCN1c2ccccc2c2cc(ccc12)N=Nc1ccc2N(CC)c3ccccc3c2c1,5.63248459
9707,GUDPEB,C21 H15 Cl1 N2,CCN1c2ccccc2c2cc3nc4ccccc4c(Cl)c3cc12,4.88199459
9708,GUDPOL,C21 H14 Cl2 N2,CCN1c2ccccc2c2c1ccc1nc3ccc(Cl)cc3c(Cl)c21,5.074651190000001
9709,GUDPUR,C21 H14 Cl2 N2,CCN1c2ccccc2c2cc3nc4ccc(Cl)cc4c(Cl)c3cc12,4.80770751
9710,GUDQAY,C21 H15 N1 O2,CCN1c2ccccc2c2c1ccc1Oc3ccccc3C(=O)c21,5.65452581
9711,GUDQIH,C28 H21 N1 O1,COc1ccc(cc1)c1c2ccccc2c(nc1c1ccccc1)c1ccccc1,5.8899043
9712,GUDSAZ,C30 H18 O2,O=C(c1ccccc1)c1c2ccccc2c2C(=O)c3ccccc3c2c1c1ccccc1,5.40363684
9713,GUDSUT,C28 H32 N2 S4,CC(NC1=C(CCC1)C(=S)SSC(=S)C1=C(CCC1)NC(C)c1ccccc1)c1ccccc1,5.6991524799999995
9715,GUDWEH,C17 H21 N3 O2 S1,CCN1C(=O)C(=Cc2ccc(cc2)N(C)C)C(=O)N(CC)C1=S,5.10730486
9717,GUFGOG,C28 H22 N2 S2,CCCN1c2ccccc2Sc2cc(ccc12)c1ccc(cc1)C1=Nc2ccccc2S1,4.92607703
9718,GUFHAT,C28 H22 N2 S2,CCCN1c2ccccc2Sc2cc(ccc12)c1cccc(c1)C1=Nc2ccccc2S1,5.58513678
9719,GUFHEX,C28 H22 N2 S2,CCCN1c2ccccc2Sc2cc(ccc12)c1ccccc1C1=Nc2ccccc2S1,5.74350704
9720,GUFLIC,C11 H11 N3 O2,COc1ccccc1NN=C(C#N)C(C)=O,6.04555341
9721,GUFNON,C23 H14 N2,N1C(=Nc2c1c1cccc3ccc4cccc2c4c13)c1ccccc1,5.6294913399999995
9722,GUFRUW,C22 H23 N1 O4,CCOC(=O)c1c2ccccc2c(NC(=O)OC(C)CC)c2ccccc12,5.39873879
9723,GUFSAD,C20 H19 N1 O4,CCOC(=O)Nc1c2ccccc2c(C(=O)OCC)c2ccccc12,5.43765107
9724,GUFSEH,C22 H23 N1 O4,CCOC(=O)c1c2ccccc2c(NC(=O)OC(C)(C)C)c2ccccc12,5.37043895
9725,GUFSIL,C28 H33 N1 O4,CCOC(=O)c1c2ccccc2c(NC(=O)OC2CC(C)CCC2C(C)C)c2ccccc12,5.378058139999999
9726,GUFSOR,C22 H23 N1 O4,CCCCOC(=O)Nc1c2ccccc2c(C(=O)OCC)c2ccccc12,5.40472529
9727,GUFSUX,C21 H21 N1 O4,COC(=O)c1c2ccccc2c(NC(=O)OC(C)(C)C)c2ccccc12,5.34921407
9728,GUFTAE,C23 H25 N1 O4,CCCOC(=O)c1c2ccccc2c(NC(=O)OC(C)(C)C)c2ccccc12,5.40581376
9729,GUFTEI,C23 H25 N1 O4,CC(C)OC(=O)c1c2ccccc2c(NC(=O)OC(C)(C)C)c2ccccc12,5.362275539999999
9730,GUFTIM,C19 H19 N1 O2,CC(C)(C)OC(=O)Nc1c2ccccc2cc2ccccc12,5.4224127
9731,GUFTOS,C24 H28 N2 O4,CC(C)(C)OC(=O)Nc1c2ccccc2c(NC(=O)OC(C)(C)C)c2ccccc12,5.356289029999999
9732,GUGBOC,C17 H25 N5 O2 S2,CCN(CC)C(=S)NC(=O)c1cccc(n1)C(=O)NC(=S)N(CC)CC,5.91765991
9733,GUGCUG,C19 H17 N5 O4,CC(C=C)N1NC(=O)N(C1=O)c1ccc(cc1)N=Nc1ccc(cc1)C(O)=O,6.02432854
9734,GUGFET,C24 H20 S5,CSC1=C(C)SC(S1)=C1c2ccccc2C(=C2SC(=C(C)S2)C)c2ccccc12,5.23492626
9735,GUGFOD,C26 H24 S6,CCSC1=C(SCC)SC(S1)=C1c2ccccc2C(=C2SC(=C(C)S2)C)c2ccccc12,5.26975683
9736,GUGGUN,C35 H28 N8 S2,C(SC1=NN(CN2N=C(SCc3ccccc3)N=C2C2=Cc3ccccc3N2)C(=N1)C1=Cc2ccccc2N1)c1ccccc1,5.9892258499999995
9737,GUGHEX,C30 H8 F10 N4,Fc1c(F)c(F)c(c(F)c1F)C1=C2C=CN=C2N2C=CC3=C2C2=C1C=CN2C1=NC=CC1=C3c1c(F)c(F)c(F)c(F)c1F,4.75573376
9738,GUGHOH,C31 H10 F10 N4,CN1C=CC2=C(C3=C4N(C=C3)C3=NC=CC3=C(C3=C4C(=C12)N=C3)c1c(F)c(F)c(F)c(F)c1F)c1c(F)c(F)c(F)c(F)c1F,4.48906219
9739,GUGJUO,C15 H13 N1 O7,COC(=O)C([n+]1ccccc1)=C(C(=O)OC)[C-]1C(=O)COC1=O,4.78240092
9740,GUGMOL,C23 H17 N1 O2,COc1ccc(cc1)c1c2ccccc2c2cccc3C(=O)N(C)c1c23,5.74486761
9741,GUGNEE,C11 H11 N1 O3 S1,CC1(C)C(=CC(=O)C2=C1SCC(=O)N2)C=O,5.864869819999999
9742,GUHBEQ,C28 H18 S2,S(Sc1c2ccccc2cc2ccccc12)c1c2ccccc2cc2ccccc12,4.82430646
9743,GUHBET,C11 H10 N2 O2 S6,CC1CSC2=C(S1)SC(S2)=C1SC(=C(S1)C(N)=O)C(N)=O,4.52362065
9744,GUHBIX,C11 H10 N2 O2 S6,CC1CSC2=C(S1)SC(S2)=C1SC(=C(S1)C(N)=O)C(N)=O,4.37803974
9745,GUHBOD,C12 H12 N2 O2 S6,CC1SC2=C(SC1C)SC(S2)=C1SC(=C(S1)C(N)=O)C(N)=O,4.95927493
9746,GUHCAN,C29 H30 N6,CCN(CC)c1ccc(cc1)c1cc(nc2c(C#N)c(nc(N)c12)N1CCCC1)c1ccccc1,5.4107118000000005
9747,GUHDAO,C13 H12 N2 O1 S1,COc1ccc(C=CC=C(C#N)C(N)=S)cc1,5.1630882
9748,GUHDIY,C27 H25 N1 O4,CC(C)(C)OC(=O)Nc1c2ccccc2c(C(=O)OCc2ccccc2)c2ccccc12,5.41288871
9749,GUHFIZ,C12 H2 F7 N3,Nc1c(F)c(F)c2nc3c(F)c(F)c(F)c(F)c3nc2c1F,5.09152225
9750,GUHFOF,C16 H10 F7 N3,CCN(CC)c1c(F)c(F)c2nc3c(F)c(F)c(F)c(F)c3nc2c1F,4.993561270000002
9752,GUHKEA,C11 H8 Br1 N3 S1,CC1=NN2C(=CC=NC2=C1Br)C1=CC=CS1,5.472481650000001
9753,GUJBOE,C20 H19 N1 O2,COc1ccc2NC(C3C(C=C(C)C3=O)c2c1)c1ccccc1,6.18433148
9754,GUJBUK,C21 H19 N1 O3,CC1=CC2C(C(Nc3cc4OCCOc4cc23)c2ccccc2)C1=O,6.125827
9757,GUJGEA,C19 H16 Cl1 N3 O1 S1,NC(=S)N1N=C(CC1c1ccc(OCC#C)cc1)c1ccc(Cl)cc1,5.7497656600000004
9758,GUJGIE,C19 H16 Br1 N3 O1 S1,NC(=S)N1N=C(CC1c1ccc(OCC#C)cc1)c1ccc(Br)cc1,5.7013294
9759,GUJGOK,C20 H19 N3 O2 S1,COc1ccc(cc1)C1=NN(C(C1)c1ccc(OCC#C)cc1)C(N)=S,5.8488151
9760,GUJHOL,C24 H16 N6 O2,O=C(Nc1cccc2cccnc12)c1nccnc1C(=O)Nc1cccc2cccnc12,5.88310145
9761,GUJLII,C40 H28,C1Cc2ccc3CCc4ccc1cc4C#CC#Cc1cc4CCc5ccc(CCc1cc4)cc5C#CC#Cc2c3,5.57778971
9762,GUJMAB,C30 H18,C1Cc2ccc3CCc4ccc1cc4C#CC#Cc1ccccc1C#CC#Cc2c3,5.6901727300000005
9763,GUJPIK,C27 H26 N2 O3,CC(NC(=O)OC1CN2CCC1C(=O)C2=Cc1ccccc1)c1cccc2ccccc12,6.30895963
9764,GUJQEH,C26 H24 N4 O4,COC1Nc2ccccc2N=CC2=CC=C(O2)C(Nc2ccccc2N=CC2=CC=C1O2)OC,5.65670272
9765,GUJTIR,C21 H6 Cl3 N1 O3,Clc1cc2C(=O)c3cc(Cl)cc4C(=O)c5cc(Cl)cc6C(=O)c(c1)c2N(c34)c56,5.45234522
9766,GUJTOX,C21 H6 Br3 N1 O3,Brc1cc2C(=O)c3cc(Br)cc4C(=O)c5cc(Br)cc6C(=O)c(c1)c2N(c34)c56,5.45860384
9767,GUJTUD,C21 H6 I3 N1 O3,Ic1cc2C(=O)c3cc(I)cc4C(=O)c5cc(I)cc6C(=O)c(c1)c2N(c34)c56,5.332887250000001
9768,GUJVAL,C33 H33 N1 O3,CC(C)(C)c1cc2C(=O)c3cc(cc4C(=O)c5cc(cc6C(=O)c(c1)c2N(c34)c56)C(C)(C)C)C(C)(C)C,5.596837669999999
9775,GUJZAM,C16 H22 O3 S8,CSC1=C2SCCOCCOCCOCCSC3=C(SC)SC(=C(S1)S2)S3,5.936435759999999
9776,GUJZEQ,C18 H26 O4 S8,CSC1=C2SCCOCCOCCOCCOCCSC3=C(SC)SC(=C(S1)S2)S3,5.90350998
9777,GUKDIC,C33 H26 N2 O3,COc1ccc(cc1)N(c1ccc(OC)cc1)c1ccc(cc1)N1c2ccccc2C(=O)c2ccccc12,5.8493593299999995
9778,GUKDOI,C39 H30 N2 O3,COc1ccc(cc1)N(c1ccc(OC)cc1)c1ccc(cc1)c1ccc(cc1)N1c2ccccc2C(=O)c2ccccc12,5.62323272
9779,GUKLAZ,C26 H20 N2 O3 S1,O=C(c1ccccc1)C(N=Nc1ccccc1)(c1ccccc1)S(=O)(=O)c1ccccc1,6.70379682
9780,GUKLED,C27 H21 Cl1 N2 O3 S1,Cc1ccc(cc1)S(=O)(=O)C(N=Nc1cccc(Cl)c1)(c1ccccc1)C(=O)c1ccccc1,6.44229541
9781,GUKPEH,C10 H8 O2 S4,O=C1C2=C(SCCS2)C(=O)C2=C1SCCS2,4.423210640000001
9782,GUKPIL,C12 H12 O2 S4,O=C1C2=C(SCCCS2)C(=O)C2=C1SCCCS2,4.54593398
9783,GUKRAI,C27 H18 N2,N#Cc1c2ccccc2c(N(c2ccccc2)c2ccccc2)c2ccccc12,4.89995411
9784,GUKREM,C27 H16 N2,N#Cc1c2ccccc2c(N2c3ccccc3c3ccccc23)c2ccccc12,5.02186111
9785,GUKRIQ,C42 H28 N2 O2 S2,O=S(=O)(c1ccc(cc1)N1c2ccccc2c2ccccc12)c1ccc(cc1)c1ccc(cc1)N1c2ccccc2Sc2ccccc12,5.112747130000001
9786,GUKROW,C48 H32 N2 O2 S2,O=S(=O)(c1ccc(cc1)N1c2ccccc2c2ccccc12)c1ccc(cc1)c1ccc(cc1)c1ccc(cc1)N1c2ccccc2Sc2ccccc12,4.92444436
9787,GUKRUC,C48 H32 N2 O2 S2,O=S(=O)(c1ccc(cc1)N1c2ccccc2Sc2ccccc12)c1ccc(cc1)c1ccc(cc1)c1ccc(cc1)N1c2ccccc2c2ccccc12,5.75928965
9788,GUKTOV,C15 H21 N5 O2,COc1nc(N)nc(NC23CC4CC(CC(C4)C2)C3)c1N=O,6.3590285699999995
9789,GUKTOX,C15 H8 F6 N2 Se1,FC(F)(F)N1C(=[Se])N(c2ccc(cc2)C(F)(F)F)c2ccccc12,6.127187579999998
9790,GUKVAM,C12 H7 F1 N2,Fc1ccc(C=CC=C(C#N)C#N)cc1,5.61234816
9791,GUKZAN,C22 H25 N3 O12,COC(=O)c1c(OC)nc(NC2OCC(OC(C)=O)C(OC(C)=O)C2OC(C)=O)c2C(=O)N(C)C(=O)c12,6.01698146
9793,GULCEV,C12 H13 N1 S2,CC[n+]1cc(SC)c([S-])c2ccccc12,5.12444803
9794,GULCIZ,C13 H10 N4 S1,S1N=[N+](N=C1[N-]c1ccccc1)c1ccccc1,5.232477230000001
9795,GULDOG01,C13 H12 Cl1 N1 O4,COc1cc(Cl)c(cc1OC)C=C1N=C(C)OC1=O,5.53778897
9796,GULFAV,C28 H27 N1 O7,CCOC(=O)C1=C2C=Cc3cc(C)ccc3N2C(=C1C(=O)OCC)C(=O)c1ccc(OC)c(OC)c1,5.90623113
9797,GULFEZ,C19 H18 O2 S1,COc1ccc(cc1)C1CC(=Cc2cc(C)ccc2S1)C=O,5.94514341
9798,GULGEB,C18 H11 N1 S2,S1C=C2N(c3ccccc3)C3=C(Sc4ccccc34)C2=C1,5.83575364
9799,GULJEF,C22 H24 O8,COC(=O)C=CCC1C2C=C(C(OC2=O)C1c1ccc(OC)c(OC)c1)C(=O)OC,6.22378798
9800,GULLAC,C33 H26 I1 N1,Cc1cc(C)c2c(c1)N(Cc1ccc(I)cc1)C1=C2c2c(CC1)ccc1ccc3ccccc3c21,5.69860826
9801,GULLEG,C31 H24 I1 N1 S1,Cc1cc(C)c2c(c1)N(Cc1ccc(I)cc1)C1=C2c2c(CC1)ccc1ccc3SC=Cc3c21,5.64935565
9802,GULSUD,C25 H22 Cl1 N5 O8,CCOC(=O)C1=C(N)N(NC(=O)c2ccccn2)C(=C(C(=O)OC)C21C(=O)Nc1ccc(Cl)cc21)C(=O)OC,5.6711247600000005
9803,GULXAO,C15 H22 O2,CC(C)(C)C(O)=C1C=CC=C1C(=O)C(C)(C)C,5.538333199999999
9805,GUMCOI,C11 H8 N2 S2,N1C=C(C=N1)C1=CC=C(S1)C1=CC=CS1,4.55464162
9806,GUMDID,C28 H22 Cl2 N4,CN=C1c2ccccc2N(c2cccc(Cl)c2)C21N(C)N(c1cccc(Cl)c1)c1ccccc21,6.054805290000001
9807,GUMDOJ,C28 H22 Cl2 N4,CN=C(c1ccccc1Nc1ccccc1Cl)C1=NCN(c2ccccc2Cl)c2ccccc12,5.76636461
9808,GUMKEG,C24 H17 N1,C(N=Cc1ccc2ccc3cccc4ccc1c2c34)c1ccccc1,5.5010536
9809,GUMLAD,C22 H17 N1,C(N=Cc1c2ccccc2cc2ccccc12)c1ccccc1,5.368806269999999
9810,GUMMUW03,C5 H2 O5,OC1=C(O)C(=O)C(=O)C1=O,6.35875645
9811,GUMMUY,C15 H10 Cl2 N2 O2,Clc1ccc(NN=C(C=O)C(=O)c2ccc(Cl)cc2)cc1,5.86432559