,ID,formula,smiles,HOMO_LUMO_gap
10278,HEGPOA,C12 H11 Cl1 N4 O2 S1,Nc1ccc(cc1)S(=O)(=O)N=C(N)c1cc(Cl)ccn1,6.18269879
10279,HEGQUH,C17 H19 Br1 N2 O1,CCN(CC)c1ccc(C=Nc2ccc(Br)cc2)c(O)c1,5.7407859
10280,HEGXID,C40 H35 Br1 N4 O3,CCOC(=O)C1(Cc2ccccc2)N(N=C(c2ccc(Br)cc2)C21CC(=NN2c1ccccc1)c1ccc(OC)cc1)c1ccccc1,5.84337283
10282,HEHNOA02,C14 H12 N4 O1,CN1N=C2C=CC=C(N=Cc3ccccc3O)C2=N1,5.89316966
10283,HEHVOH,C34 H18 O2,O=C(c1ccccc1)c1ccc(cc1)C#CC#CC#CC#Cc1ccc(cc1)C(=O)c1ccccc1,5.327717079999999
10284,HEHVUN,C30 H30,CCCCCc1ccc(cc1)C#CC#CC#CC#Cc1ccc(CCCCC)cc1,5.662145
10285,HEHWEY,C34 H30,CCCCCc1ccc(cc1)C#CC#CC#CC#CC#CC#Cc1ccc(CCCCC)cc1,5.0692089199999995
10286,HEHWOJ01,C15 H6 N4 O1,C#CCOC1=CC(C=CC1=C(C#N)C#N)=C(C#N)C#N,4.378583970000001
10287,HEHXOJ,C20 H12 O2,O=C1c2ccccc2C(=O)C1=Cc1ccc2ccccc2c1,5.4656788
10288,HEHXUP,C20 H8 F4 O2,Fc1c(F)c(F)c2C(=O)C(=Cc3ccc4ccccc4c3)C(=O)c2c1F,5.3810514
10289,HEHYAW,C23 H12 N2 O1,O=C1c2ccccc2C(=C(C#N)C#N)C1=Cc1ccc2ccccc2c1,4.86131393
10290,HEHYEA,C22 H15 N3 O1,CC1(C)OC(=C(C#N)C#N)C(=C1C=Cc1ccc2ccccc2c1)C#N,4.91546459
10291,HEHYIE,C26 H25 N1 O4,COc1ccc(cc1)N(OCCC(=O)c1ccccc1)C(=O)C=Cc1ccc(C)cc1,5.77670493
10292,HEJBUV,C20 H14 Cl2 N2 O2,CN1C(=O)C2=C(N(C)C(=O)C2=C1c1ccc(Cl)cc1)c1ccc(Cl)cc1,4.8920628100000005
10294,HEJCUW,C27 H21 N3 O1 S1,COC1=C(SC(=N1)c1ccccn1)c1ccc(cc1)N(c1ccccc1)c1ccccc1,5.15220364
10295,HEJDAD,C26 H20 N4 O1 S1,COC1=C(SC(=N1)c1cnccn1)c1ccc(cc1)N(c1ccccc1)c1ccccc1,4.91437614
10296,HEJDEH,C28 H24 N4 O1 S1,COC1=C(SC(=N1)c1ncccn1)c1ccc(cc1)N(c1ccc(C)cc1)c1ccc(C)cc1,4.809884430000001
10297,HEJDIL,C27 H19 N3 O1 S2,COC1=C(SC(=N1)c1ccccn1)c1ccc(cc1)N1c2ccccc2Sc2ccccc12,4.88498785
10298,HEJDOR,C21 H17 N3 O1 S1,COC1=C(SC(=N1)c1ccccn1)c1ccc(Nc2ccccc2)cc1,5.06431087
10299,HEJFOT,C17 H14 O5,COc1cc(OC)c2c(O)c3C(=O)C=C(C)C(=O)c3cc2c1,5.0893453499999985
10300,HEJHIN,C22 H10 N8 S2,C=Cc1ccccc1C1CC(C#N)(C#N)C21C1=NSN=C1C(=C(C#N)C#N)C1=NSN=C21,5.436562619999999
10301,HEJJEO,C30 H22 Cl5 F3 N2 O3,CC(CC12CCC(O1)(c1cc(Cl)ccc1N2Cc1ccc(C)cc1)C(F)(F)F)N1C(=O)c2c(Cl)c(Cl)c(Cl)c(Cl)c2C1=O,5.29343073
10302,HEJJUE,C42 H34 O4,CCOC(=O)C1(CC21CC1(OC(=Cc3ccccc13)c1ccccc1)C(C(=O)c1ccccc1)c1ccccc21)c1ccccc1,5.892081200000001
10303,HEJKEP,C34 H28 O2,Cc1ccc(cc1)C(=O)C1c2ccccc2C(=C)CC21OC(=Cc1ccccc21)c1ccc(C)cc1,5.94269438
10304,HEJMAN,C25 H18 N2 O1,CC(=O)N1C(=Cc2ccccc2)c2ccccc2c2cc3ccccc3nc12,5.67683915
10305,HEJMIV,C32 H24 Br2 O3,CC1(O)CC2(OC(=Cc3ccccc23)c2ccc(Br)cc2)C(C(=O)c2ccc(Br)cc2)c2ccccc12,5.75112623
10307,HEJRIZ,C27 H15 F3 O1,FC(F)(F)C1=C(Oc2ccc3ccccc3c12)c1c2ccccc2cc2ccccc12,5.40200416
10308,HEJSOH,C25 H17 N1 O2,O=C1Oc2ccccc2C2=C1N=C(CC(=C2)c1ccccc1)c1ccccc1,5.914666650000002
10309,HEJSUN,C21 H13 N1 O4,O=C1Oc2ccccc2C2=C1N=C(CC(=C2)C1=CC=CO1)C1=CC=CO1,5.60581743
10310,HEJVUP,C66 H24,c1ccc2C#Cc3c(C#Cc4ccccc4C#CC#Cc2c1)c1C#Cc2ccccc2C#CC#Cc2ccccc2C#Cc1c1C#Cc2ccccc2C#CC#Cc2ccccc2C#Cc31,5.0806377000000005
10311,HEJWIE,C43 H45 N3,CCCCC1=C(C)C2=NC1=CC1=C3C=CC(=CC=C3C(=C1)C=C1N=C(C=C3NC(=C2)C(=C3CC)CC)c2ccccc12)C(C)(C)C,3.5973451099999996
10312,HEJWOK,C44 H47 N3,CCCCC1=C(C)C2=NC1=CC1=CC(=C3C=CC(=CC=C13)C(C)(C)C)C=C1N=C(C=C3NC(=C2)c2ccccc32)C(=C1CCCC)C,3.72360593
10313,HEJXOJ,C35 H24 N8,C1C2C3C4C1C(C2c1c(nnc(c2ccccn2)c31)c1ccccn1)c1c(nnc(c2ccccn2)c41)c1ccccn1,6.49073168
10314,HEKMOC,C16 H16 O6,COc1cc(O)c2C(=O)C3=C(CC(C)(O)C(O)C3)C(=O)c2c1,5.84037957
10315,HEKMUI,C11 H12 O3,CC(=O)C=C(C)C1=CC=C(C)C(=O)O1,5.97698073
10316,HEKRAT,C19 H14 Cl1 N1 O1 S1,Oc1ccc(Cl)cc1C=Nc1ccccc1Sc1ccccc1,5.843644940000001
10317,HEKVOI,C22 H20 O6,COc1ccccc1C=CC1=C(C(O)=O)C(=O)OC(C1)c1ccccc1OC,5.59030695
10318,HEKVUO,C22 H20 O6,COc1ccc(C=CC2=C(C(O)=O)C(=O)OC(C2)c2ccc(OC)cc2)cc1,5.48391043
10319,HELTAT,C37 H37 N1 O2,CCCC(N(Cc1ccccc1)Cc1ccccc1)=C1C(OCC)C(=C(C1=O)c1ccccc1)c1ccccc1,6.047730320000001
10320,HELVUS,C20 H15 Cl1 O3 S1,COC(=O)C1=CCC2=C(C1c1ccccc1)S(=O)c1ccc(Cl)cc21,6.65291153
10321,HELZAC,C15 H15 N3 O3,COc1ccc(OC)c(C=NNC(=O)c2ccccn2)c1,6.11167708
10322,HELZEG,C10 H14 N4 S1,CNC(=S)NN=C(C)c1cc(C)ccn1,5.91221763
10323,HELZIK,C16 H17 N3 S2,Cc1cccc(n1)C(C)=NNC(=S)SCc1ccccc1,5.67112475
10324,HEMBAF,C23 H15 N3 O1 S1,O=C(c1ccccc1)C(=CC1=CN(N=C1C1=CC=CS1)c1ccccc1)C#N,5.8490872099999995
10325,HEMKAO,C22 H23 Br1 N2 O3,COC(=O)C1=C(C)NC2=C(C1C1=CNc3cc(Br)ccc13)C(=O)C(C)(C)CC2,6.10460212
10326,HEMRIB,C15 H12 N2 O1,NC(=O)N1c2ccccc2C=Cc2ccccc12,6.85400366
10327,HEMWOL,C20 H22 N2 O2 S1,CC(C(Sc1ccccn1)N1C(=O)c2ccccc2C1=O)C(C)(C)C,6.102153090000001
10328,HENJAL,C18 H16 N2 O3,COc1cc2CCN3C(=O)c4cnccc4C3=Cc2cc1OC,5.42812709
10330,HENQOJ,C21 H14 F3 N1 O5,COC1Oc2ccccc2C(=O)C1=CNc1ccc2c(OC(=O)C=C2C(F)(F)F)c1,5.63411727
10331,HEPFUL10,C14 H12,C1=CC=CC(C=C1)=C1C=CC=CC=C1,5.15356421
10332,HEPGUF,C25 H22 N4 O2,CN(C)c1ccc(cc1)N=Nc1ccc(OC(=O)c2ccccc2)c2nc(C)ccc12,5.08118193
10333,HEPHUG,C15 H19 N3,CN(C)C=CC1=CC(CC(C)(C)C1)=C(C#N)C#N,4.96444509
10334,HEPJAO01,C23 H27 N3,CCN(CC)c1ccc(C=CC2=CC(CC(C)(C)C2)=C(C#N)C#N)cc1,4.52634179
10335,HEPJIW,C25 H25 N3,CN(C)c1ccc(C=CC2=CC(CC(C)(C)C2)=C(C#N)C#N)c2ccccc12,4.64253441
10336,HEPJOC01,C20 H20 N2 O1,COc1ccc(C=CC2=CC(CC(C)(C)C2)=C(C#N)C#N)cc1,4.973696960000001
10337,HEPJUI,C21 H22 N2 O1,COc1ccc(C=CC2=CC(CC(C)(C)C2)=C(C#N)C#N)cc1C,5.042813880000001
10338,HEPKAP,C22 H24 N2 O1,COc1ccc(C=CC2=CC(CC(C)(C)C2)=C(C#N)C#N)c(C)c1C,4.844715
10339,HEPOPH02,C26 H16 N8,N1C2=Nc3cccc(N=C4NC(=Nc5cccc(N=C1c1ccccc21)n5)c1ccccc41)n3,4.94648557
10340,HEPPAT,C14 H14 O4,CC(=O)C(C)=CC=CC=CC1=C(C)C(=O)OC1=O,5.079277139999999
10341,HEPPEA,C19 H16 N2 O1,CN1C=C(N(C)C1=O)c1c2ccccc2cc2ccccc12,5.11165868
10342,HEPPEX,C11 H10 O5,COC1=C(OC)C(=O)C2=C(OC(=C2)C)C1=O,5.73643208
10343,HEPPUO,C19 H17 N3 O1 S1,Cc1ccc(O)c(c1)N=Nc1ccccc1SCc1ccccn1,5.5911232900000005
10344,HEPTOM,C25 H24 Br1 N3,CC(C)c1cc(Br)cc(C(C)C)c1N=Cc1ccc2ccc3cccnc3c2n1,5.97317113
10345,HEPTUS,C26 H27 N3,CC(C)c1cccc(C(C)C)c1N=C(C)c1ccc2ccc3cccnc3c2n1,6.005824800000001
10346,HEPVAA,C29 H33 N3,CC(C)c1cc(C(C)C)c(N=C(C)c2ccc3ccc4cccnc4c3n2)c(c1)C(C)C,5.87493804
10347,HEPYUZ,C30 H46 N2 O2,COc1c(cc(cc1C(C)(C)C)N=Nc1cc(c(OC)c(c1)C(C)(C)C)C(C)(C)C)C(C)(C)C,6.06868309
10348,HEPZIL,C12 H4 Br6 N2 S1,Brc1cc(Br)c(N=S=Nc2c(Br)cc(Br)cc2Br)c(Br)c1,6.252904169999999
10349,HEPZOR01,C16 H18 N2 S1,Cc1cccc(C)c1N=S=Nc1c(C)cccc1C,5.91330608
10350,HEPZUX,C14 H11 Br3 N2 S1,Cc1cccc(C)c1N=S=Nc1c(Br)cc(Br)cc1Br,5.861876570000001
10351,HEQFOY,C20 H12,c1ccc2c(c1)c1ccccc1C2=C1c2ccccc12,5.224313820000001
10352,HEQFUE,C24 H14,c1ccc2cc3c(cc2c1)C3=C1c2ccccc2c2ccccc12,4.75518954
10353,HEQGAL,C22 H14,c1ccc2c(c1)C=Cc1ccccc1C2=C1c2ccccc12,5.33696895
10354,HEQKOG,C27 H22 N2 O2,CC1(Nc2cccc3CCN(c4ccccc14)c23)C(=O)Oc1ccc2ccccc2c1,5.72962924
10355,HEQKUM,C8 H5 I1 O2 S4,IC1=CSC(S1)=C1SC2=C(OCCO2)S1,5.60663378
10358,HERBAH,C6 H2 Br2 N4 O1,Brc1cc(Br)c2N=NN=[N+]([O-])c2c1,5.8395632299999995
10359,HERBEL,C38 H30 O1 S2,CCOC(=S)SC1(c2ccccc2)C(=C(c2ccccc2)C(=C1c1ccccc1)c1ccccc1)c1ccccc1,5.85616218
10360,HERBIQ01,C13 H13 N5,CC(=NN=C(N)c1ccccn1)c1ccccn1,6.16854887
10361,HERBUE,C30 H23 N1,Cc1ccc(cc1)N(c1ccc(C)cc1)c1c2ccccc2c(C#C)c2ccccc12,4.782128810000001
10362,HERHIW01,C15 H12 O7,COC(=O)C1(O)C(O)C=CC2=C1C(=O)c1c(O)cccc1O2,6.556583219999999
10363,HERHUI,C17 H10 O2 S4,O=C1OC(=C2SC3=C(SCCS3)S2)c2cccc3cccc1c23,4.68688896
10364,HERLIC,C26 H24 N2 O1,COc1ccc(Nc2ccc3nc(C)cc(C(=C)c4ccc(C)cc4)c3c2)cc1,5.76690883
10365,HERMUN,C33 H22 Br1 N1 O2,Brc1ccccc1CN(C(=O)c1cccc2ccccc12)C(=O)c1c2ccccc2cc2ccccc12,5.34866985
10366,HERNAU,C33 H22 Br1 N1 O2,Brc1ccc(CN(C(=O)c2cccc3ccccc23)C(=O)c2c3ccccc3cc3ccccc23)cc1,5.32717285
10367,HERNEY,C37 H25 N1 O2,O=C(N(Cc1cccc2ccccc12)C(=O)c1c2ccccc2cc2ccccc12)c1cccc2ccccc12,5.35846594
10368,HERRUU,C21 H15 F1 O1,CC1=Cc2ccccc2C(F)(C1=O)c1cccc2ccccc12,5.823236400000001
10369,HERSAB,C21 H15 Cl1 O1,CC1=Cc2ccccc2C(Cl)(C1=O)c1cccc2ccccc12,5.95330682
10370,HERSIJ,C21 H20 O1 S1,Cc1ccc(C)c2c1CC(C)(C)C2=C1Sc2ccccc2C1=O,5.20336105
10371,HERSUV,C23 H26 O1 S1,CSc1ccccc1C(=O)C=C1c2c(CC1(C)C)cccc2C(C)C,6.00555268
10372,HERTAC,C23 H26 O2 S1,CC(C)c1cccc2CC(C)(C)C(=CC(=O)c3ccccc3S(C)=O)c12,6.05262838
10373,HERTEG,C21 H20 O2 S1,Cc1ccc(C)c2c1CC(C)(C)C2=C1C(=O)c2ccccc2S1=O,5.784052
10374,HERTOQ,C22 H22 O2 S1,CC(C)c1cccc2CC(C)(C)C(c12)=C1C(=O)c2ccccc2S1=O,5.80527689
10375,HERVAE,C22 H24 O1 S1,CSc1ccccc1C(=O)C=C1c2c(C)ccc(C)c2CC1(C)C,5.98378358
10377,HESCIR10,C40 H28 Cl2 N2,Clc1ccc(cc1)N1N=C2C(=CC(=CC2=C(C1c1ccccc1)c1ccccc1)Cl)C(=Cc1ccccc1)c1ccccc1,4.53096772
10378,HESDIT01,C16 H12 Cl1 N3 O1 S1,Oc1ccc(Cl)cc1C=NNC1=NC(=CS1)c1ccccc1,5.95194625
10379,HESFOB,C30 H23 Cl1 N2 O3,CN1CC(c2ccc(Cl)cc2)C2(CCC3=C(Nc4ccccc34)C2=O)C21C(=O)c1ccccc1C2=O,5.96337503
10381,HESJAT,C39 H37 B1 F2 N4,CN(C)c1ccc(cc1)C=CC1=CC(=C2N1[B-](F)(F)[N+]1=C(C=Cc3ccc(cc3)N(C)C)C=C(C)C1=C2c1ccc(cc1)C#C)C,3.6302708800000003
10382,HESKIA,C28 H26 N4 O1 S1,CCN(CC)c1ccc(C=CC2=CC=C(S2)C=CC2=C(C#N)C(OC2(C)C)=C(C#N)C#N)cc1,3.71435406
10383,HESKOG,C21 H15 Cl1 F3 N3 O3 S1,Cc1ccc(cc1)C(=O)NNC(=S)NC(=O)C1=CC=C(O1)c1ccc(Cl)cc1C(F)(F)F,5.685002559999999
10384,HESLAT,C37 H31 N3 O2,COc1ccc(cc1)C1C(=NN(c2ccccc2)C21N(Cc1ccccc1C2=O)c1ccccc1)c1ccc(C)cc1,5.47982872
10385,HESMEY,C26 H20 N2,c1ccc(C=Cc2ccc(cc2)c2ccc(C=Cc3ccccn3)cc2)nc1,5.44527026
10386,HESMUN,C24 H22 O2,COc1cc(C=Cc2ccccc2)c(OC)cc1C=Cc1ccccc1,5.91684357
10387,HESNAU,C24 H20 Cl2 O2,COc1cc(C=Cc2ccccc2Cl)c(OC)cc1C=Cc1ccccc1Cl,5.26676357
10388,HESNEY,C24 H18 Cl4 O2,COc1cc(C=Cc2ccc(Cl)c(Cl)c2)c(OC)cc1C=Cc1ccc(Cl)c(Cl)c1,5.49561132
10389,HESNIC,C26 H22 O6,COc1cc(C=Cc2ccc3OCOc3c2)c(OC)cc1C=Cc1ccc2OCOc2c1,5.09397128
10390,HESNOI,C20 H18 O2 S2,COc1cc(C=CC2=CC=CS2)c(OC)cc1C=CC1=CC=CS1,5.26621935
10391,HESNUR,C39 H29 N3,N#CC(=Cc1ccc(cc1)N(c1ccccc1)c1ccccc1)c1ccc(cc1)N(c1ccccc1)c1ccccc1,5.35901017
10392,HESPIE,C17 H17 N1 O4,COc1cc2CCN3CCCC4=C3c2c(C(=O)C4=O)c1OC,5.23519837
10393,HESQUS,C42 H32 O6,Oc1c2Cc3cc(cc(Cc4cccc(Cc5cc(cc(Cc1ccc2)c5O)C(=O)c1ccccc1)c4O)c3O)C(=O)c1ccccc1,6.36828044
10394,HESRON,C21 H21 N3 O3,COc1ccc(cc1)C=C1N=C(N2CCOCC2)N(C1=O)c1ccccc1,5.66160077
10395,HESSII,C24 H20 N2 O1 S1,COc1ccc(N=Nc2ccccc2SCc2ccccc2)c2ccccc12,5.24472235
10396,HESTII10,C20 H19 N1 O1,O=C1C2CCN(CC2)C1=Cc1ccccc1c1ccccc1,6.45508476
10397,HESXIP,C48 H40 O4,C1OCc2c3ccccc3c(COCc3ccc(COCc4c5ccccc5c(COCc5ccc1cc5)c1ccccc41)cc3)c1ccccc21,5.277920249999999
10398,HETAUR20,C4 H11 N1 O4 S1,OCC[NH2+]CCS(=O)(=O)[O-],5.72908501
10399,HETDIU01,C15 H14 N2 O1 S1,Cc1ccc(NC(=S)NC(=O)c2ccccc2)cc1,6.1021531
10400,HETGOF,C26 H27 N1 O3,CCOC1CC(Nc2ccccc2)c2cc(OC)ccc2C1C(=O)c1ccccc1,5.85262469
10401,HETKOJ,C14 H15 B1 F2 N6,CCC1=CC=C(N1)C1=C2C=CC(=[N+]2[B-](F)(F)N2N=NN=C12)CC,4.46593252
10402,HETKUP,C18 H22 B2 F4 N6,CC(C)(C)C1=CC=C2N1[B-](F)(F)[N+]1=NN=[N+]3C1=C2C1=CC=C(N1[B-]3(F)F)C(C)(C)C,4.17694761
10403,HETVIO,C31 H58 N4 O7,CCOC(=O)CCC(C)(C)NC(=O)C(CC(C)C)NC(=O)CCC(C)(C)NC(=O)C(CC(C)C)NC(=O)OC(C)(C)C,9.064656580000001
10404,HETXOW,C32 H26 N2 O3 S1,Cc1ccc(cc1)N=Nc1c(O)c2ccccc2c2c1CC2(c1ccccc1)S(=O)(=O)c1ccc(C)cc1,5.0923386
10405,HETXUC,C33 H24 Br2 N2 O5 S1,CCOC(=O)C1c2c(N=Nc3ccc(Br)cc3)c(O)c3ccccc3c2C1(c1ccccc1)S(=O)(=O)c1ccc(Br)cc1,5.23274935
10406,HETYAJ,C29 H26 N2 O6,CCOC(=O)Cc1c(N=Nc2ccc(OC)cc2)c(O)c2ccccc2c1C(=O)c1ccc(OC)cc1,5.03410624
10407,HEVCUH,C19 H14 N2 O2,Cc1cc2C(=O)c3ccc(OCc4ccccc4)cc3c2nn1,6.02922659
10408,HEVDAO,C13 H10 N2 O2,COc1ccc2C(=O)c3cc(C)nnc3c2c1,6.1503172500000005
10409,HEVDAQ,C18 H16 F1 N1 O1,CN(C)c1ccc(cc1)C=C1Cc2cc(F)ccc2C1=O,5.45044042
10411,HEVMIE,C13 H15 N5,CNC(=Nc1cc(C)cc(C)n1)c1cnccn1,6.07385326
10412,HEVPON,C23 H29 N1 O11,COc1cc2CC[N+](=C(C(OC(C)=O)C(OC(C)=O)C(COC(C)=O)OC(C)=O)c2cc1OC)[O-],6.10677903
10413,HEVPOO,C39 H48 N4,CCC1=C2NC(=C1CC)C1=Nc3c(cccc3C1(CC)CC)C=C1NC(=C3N=C(C=C2)C(=C3CC)CC)C(=C1CC)CC,3.86537724
10414,HEVPUW,C38 H37 Cl1 N1 O3 P1 S1,CC(C)(C)S(=O)NC(c1ccc(Cl)cc1)c1cccc2c1Oc1c(cccc1P(=O)(c1ccccc1)c1ccccc1)C2(C)C,6.63331933
10415,HEVREF,C28 H25 N3 O4,CCOC(=O)C(=CNc1ccc2nc(c3ccccc3)c(nc2c1)c1ccccc1)C(=O)OCC,5.27683179
10416,HEVSIL,C38 H27 N7,c1ccc(cc1)N1c2ccc(cc2c2cc(ccc12)N(c1ccccn1)c1ccccn1)N(c1ccccn1)c1ccccn1,5.88582258
10417,HEVTEI,C36 H24 N2,N#CC(=Cc1cc(c2ccccc2)c(C=C(C#N)c2ccccc2)cc1c1ccccc1)c1ccccc1,5.54676873
10418,HEVVIN,C15 H15 Br1 N2,CN(C)c1ccc(cc1)C=Nc1ccc(Br)cc1,5.81071916
10419,HEVWUA,C23 H25 N3 O2 S1,NC(=S)NN=C1C(CCc2ccccc12)CCC1(O)CCc2ccccc2C1=O,5.95847698
10420,HEVYIS,C23 H24 N2 O1,Oc1c(CN2CCCCC2)cc(C=Nc2ccccc2)c2ccccc12,5.92636755
10421,HEVZAJ,C46 H50 O2,COc1ccc(cc1)C(CC1=C2C=CC(=C2C=C(C=C1)C(C)C)C)C(CC1=C2C=CC(=C2C=C(C=C1)C(C)C)C)c1ccc(OC)cc1,5.10131835
10422,HEVZEN,C35 H36 O8,COC(=O)C=C(C1C(c2ccccc2)C(=C(C(=O)OC)C2=C(C)C3=CC(=CC=C(C)C3=C12)C(C)C)C(=O)OC)C(=O)OC,4.62756814
10423,HEVZIR,C35 H36 O8,COC(=O)C1C2C(c3ccccc3)C3(C(=O)OC)C1(C(=O)OC)C3(C(=O)OC)C1=C2C2=C(C)C=CC(=CC2=C1C)C(C)C,5.00226891
10424,HEVZOX,C33 H32 O8,COC(=O)C=C(C1C(c2ccccc2)C(=C(C(=O)OC)C2=C1C=C1C(=CC(=CC(=C21)C)C)C)C(=O)OC)C(=O)OC,5.10676064
10425,HEVZUD,C28 H26 O4,COC(=O)c1c(C=Cc2ccccc2)c2cc(cc3C(=Cc(c1C(=O)OC)c23)C)C(C)C,5.45452214
10426,HEWBAM,C28 H28 O4,COC(=O)C1=C(C(=O)OC)c2cc(C)c3cc(ccc(CC1c1ccccc1)c23)C(C)C,4.79682296
10427,HEWBIU,C29 H30 O5,COC(=O)C1=C(C=Cc2ccc(OC)cc2)C23C=CC(=CC2C(=CC3=C1C(=O)OC)C)C(C)C,5.16472089
10428,HEWCIY,C32 H21 N3,c1ccc(cc1)c1nc2ccccc2c(n1)c1ccc(cc1)N1c2ccccc2c2ccccc12,5.74595607
10429,HEWFUM,C16 H11 F1 N2 O1,Oc1ccc(F)cc1C=Nc1cccc2cccnc12,5.8977956
10430,HEWGAT,C16 H11 Cl1 N2 O1,Oc1ccc(Cl)cc1C=Nc1cccc2cccnc12,6.01616512
10431,HEWGEX,C16 H11 Br1 N2 O1,Oc1ccc(Br)cc1C=Nc1cccc2cccnc12,5.91085706
10432,HEWGIB,C16 H11 I1 N2 O1,Oc1ccc(I)cc1C=Nc1cccc2cccnc12,5.7976577
10433,HEWGUN,C22 H20 N2 O2,COc1ccc(cc1)C=Nc1ccc(cc1)N=Cc1ccc(OC)cc1,5.62568174
10434,HEWHEY,C22 H14 N4,N#Cc1ccc(cc1)C=Nc1ccc(cc1)N=Cc1ccc(cc1)C#N,5.641192239999999
10435,HEWHIC,C22 H14 F6 N2,FC(F)(F)c1ccc(cc1)C=Nc1ccc(cc1)N=Cc1ccc(cc1)C(F)(F)F,5.91521088
10436,HEWHOI,C20 H14 Cl2 N2,Clc1ccc(cc1)C=Nc1ccc(cc1)N=Cc1ccc(Cl)cc1,5.66350557
10437,HEWLOL01,C20 H14 N4,c1ccc(cc1)c1nnc(nc1c1ccccc1)c1ccccn1,6.60991754
10438,HEWMAY,C22 H13 N1 O1,O=C1c2cccc3cccc(C1=Nc1cccc4ccccc14)c23,5.585136779999999
10439,HEWMII,C20 H18 N2 O1,CN1CCC2=C(Nc3ccccc23)C=C1C(=O)c1ccccc1,5.224041700000001
10440,HEWMOO,C24 H23 N3 O1,CN1CCC2=C(Nc3ccccc23)C(=C1)C(=O)C1=C(C)N(C)c2ccccc12,5.7402416800000005
10441,HEWNAB,C23 H20 N4 S1,CCN(CC)c1ccc(cc1)C1=CC=C(S1)c1nc2ccccc2c(n1)C#N,4.50348422
10442,HEWNAZ,C31 H19 N3 O4,O=C1N(Cc2cccc3cc4cccc(CN5C(=O)c6ccccc6C5=O)c4nc23)C(=O)c2ccccc12,5.618062549999999
10443,HEWNIJ,C26 H23 N1 O3 S1,Cc1ccc(SC2C(COC2c2ccccc2)CN2C(=O)c3ccccc3C2=O)cc1,6.072220580000001
10444,HEWRAD02,C12 H12 N4,Nc1ccccc1N=Nc1ccccc1N,5.22295325
10445,HEWRIL,C17 H12 Br1 N1 O1,Oc1ccc(Br)cc1C=Nc1cccc2ccccc12,5.66296134
10446,HEWVIP,C30 H35 N5 O8,COC(=O)CNC(=O)C(NC(=O)CNC(=O)C(NC(=O)CNC(=O)OC(C)(C)C)=Cc1ccccc1)=Cc1ccccc1,5.8395632299999995
10447,HEWZOB,C19 H18 N2,N#Cc1ccc(cc1)C=C(N1CCCC1)c1ccccc1,5.892625430000001
10448,HEXBIX,C34 H28 P2,C(P(c1ccccc1)c1ccccc1)P(c1ccccc1)(c1ccccc1)=C1C=Cc2ccccc12,4.94920672
10449,HEXGOH,C27 H17 N1 O6,CN(c1ccccc1)C1=C(C(=O)OC2=C(O)C(=O)c3ccccc3C2=O)C(=O)c2ccccc12,5.42540595
10450,HEXGUN,C24 H20 N2 O2,Cc1ccccc1NC(=O)C1=C(Nc2ccccc2C)c2ccccc2C1=O,5.063766640000001
10451,HEXHAU,C25 H21 Cl1,CC1C(=C(C)c2ccc(Cl)cc12)C=C(c1ccccc1)c1ccccc1,5.74840509
10452,HEXHOH,C28 H34 N4 O4,N#CC1=C(C#N)N(CCOCCOCCOCCOCCN1Cc1ccccc1)Cc1ccccc1,5.94432706
10453,HEXJEA,C23 H21 Cl1 F1 N1 O1,CCC(C(Nc1ccc(Cl)cc1)C(=O)c1ccccc1)c1ccc(F)cc1,6.26678197
10454,HEXPEG,C22 H12 N2,c1cnc2cccc(C#CC#Cc3cccc4ncccc34)c2c1,4.84308231
10455,HEXSOV,C15 H16 Cl1 N1 O2 S1,CSC1=C(OC(=N1)c1ccc(Cl)cc1)C(=O)C(C)(C)C,5.96745675
10456,HEXSUB,C22 H14 F3 N1 O4,COc1ccc(cc1)C1=C(N=C(O1)C1=CC=CO1)C(=O)c1ccc(cc1)C(F)(F)F,5.81316819
10457,HEXTUC,C22 H14 Br2 S1,Brc1ccc(cc1)C=C(C1=Cc2ccccc2S1)c1ccc(Br)cc1,5.63438938
10458,HEXVIP,C8 H13 N5 O3 S1,COC(=O)C(C)=NNC(=O)C(C)=NNC(N)=S,5.99847772
10459,HEXWIR,C42 H34 Cl2 N2 O4,CC(C)(C)c1ccccc1N1C(=O)c2c(c3ccc(Cl)cc3)c3C(=O)N(C(=O)c3c(c3ccc(Cl)cc3)c2C1=O)c1ccccc1C(C)(C)C,5.4213242500000005
10460,HEXZOZ,C9 H8 O4 S5,COC(=O)C1SC2=C(SC1C(=O)OC)SC(=S)S2,6.1552153
10461,HEXZUI,C22 H14 F3 N1 O4,COc1ccc(cc1)C1=C(OC(=N1)C1=CC=CO1)C(=O)c1ccc(cc1)C(F)(F)F,5.5413264600000005
10462,HEYCIX,C14 H8 S2,S1C=CSC2=C1c1cccc3cccc2c13,4.80825174
10463,HEYLON,C27 H27 N1 O3,CCOC(=O)C1Nc2ccc(OC)cc2C(C=Cc2ccccc2)C1c1ccccc1,6.0237843
10464,HEYROS,C24 H18 O5,COc1ccc2OC(c3cc(OC)c4cccc(C=O)c4c3O)c3cccc1c23,5.47057685
10465,HEYXOB,C22 H16 O5 S1,COc1ccc2OC(=O)C(=C(c3ccccc3)c2c1)S(=O)(=O)c1ccccc1,6.047730319999999
10466,HEZBOG,C37 H30 N1 O2 P1,COc1ccc(cc1)N(c1ccc(OC)cc1)c1ccc(cc1)C1=CC(=PC(=C1)c1ccccc1)c1ccccc1,5.24118487
10467,HEZDIC,C15 H9 B1 F6 N2,CC1=CN2C(=C1C)C=C1[N+](=Cc3c(F)c(F)c(F)c(F)c13)[B-]2(F)F,4.43681633
10468,HEZDOI,C29 H21 B1 F6 N2 S2,Cc1ccc(SC2=C(C)C(=C3C=C4[N+](=C(Sc5ccc(C)cc5)c5c(F)c(F)c(F)c(F)c45)[B-](F)(F)N23)C)cc1,4.044428160000001
10469,HEZDUO,C29 H21 B1 F6 N2 S2,CC1=C(SCc2ccccc2)N2C(=C1C)C=C1[N+](=C(SCc3ccccc3)c3c(F)c(F)c(F)c(F)c13)[B-]2(F)F,3.90320107
10470,HEZFEA,C19 H19 N1 O2,CCC1=C(C)c2ccc(OC)cc2N1C(=O)c1ccccc1,6.01235553
10471,HEZHEB,C21 H18 N2 O1,O=C1[N-][N+](C2C3CCC(C3)C12)=C1c2ccccc2c2ccccc12,5.08118193
10472,HEZHIF,C18 H16 N2 O2,O=C1[N-][N+](C2OCCC12)=C(c1ccccc1)c1ccccc1,5.80663746
10473,HEZHUQ,C38 H34 Cl2 N4 O2,Cc1ccc(cc1)N1C(N2c3ccc(Cl)cc3C(=Nc3ccc(Cl)cc3)C2=C2N(c3ccc(C)cc3)C(=O)C2(C)C)C(C)(C)C1=O,5.41996367
10474,HEZJEC,C30 H25 Cl2 N3 O3,CC1(C)C(N(c2ccccc2)C1=O)N1c2ccc(Cl)cc2C2=C1C(=O)C(C)(C)C(=O)N2c1ccc(Cl)cc1,5.86486982
10475,HEZJIG01,C19 H14 Cl2 N2 O2,CC1(C)C(=O)N(c2ccc(Cl)cc2)C2=C(Nc3ccc(Cl)cc23)C1=O,5.91820413
10476,HEZJON,C33 H40,CC1=CC2=C(C=C(C)C1)C1=CC(=CC3=CC=C4C=C(C=C2C4(C)C13C)C(C)(C)C)C(C)(C)C,4.524709100000001
10477,HEZJUT,C33 H38 O1,CC1=CC2=C(C=C(C)C1=O)C1=CC(=CC3=CC=C4C=C(C=C2C4(C)C13C)C(C)(C)C)C(C)(C)C,4.39545503
10478,HEZMUU,C15 H14 S3,CC1=CSC(=C1)C1=C(C)C=C(S1)C1=C(C)C=CS1,5.52989767
10479,HEZNAB,C37 H33 N7,CC(NC(NC(C)=NN=C(c1ccccc1)c1ccccc1)=Nc1ccccc1)=NN=C(c1ccccc1)c1ccccc1,5.32091423
10480,HEZNAD,C39 H31 N1 P2 S2,S=P(N=P(SCc1c2ccccc2cc2ccccc12)(c1ccccc1)c1ccccc1)(c1ccccc1)c1ccccc1,5.46186921
10481,HEZNIK,C33 H32 N2 O3,CCN(CC)c1ccc2c(Oc3cc(C)c(Nc4ccc(C)cc4C)cc3C32OC(=O)c2ccccc32)c1,5.83357673
10482,HEZNIM,C16 H12 O2,Cc1ccc(cc1)C=C1OC(=O)c2ccccc12,5.806909569999999
10483,HEZQUZ,C13 H12 Br1 N3,CC1=CC=C(N=Nc2ccc(Br)cc2)N1C=C,5.48472677
10484,HEZRUZ,C14 H18 N2 O4,CN(C)c1cc[n+](CC2=C([O-])OC(C)(C)OC2=O)cc1,5.216694629999999
10485,HEZSIQ,C22 H17 N1 O2,CON=C1OC(=C(c2ccccc2)c2ccccc12)c1ccccc1,6.15848066
10486,HEZWUF,C9 H9 N3 S1,CNN=C1C(=S)Nc2ccccc12,5.45533847
10487,HFULCA01,C7 H6 O2,OC=C1C=CC=C1C=O,5.71384663
10488,HIBCUR,C8 H9 Cl1 N2 S2,Clc1nccnc1C1SCCCS1,6.34406231
10489,HIBFAA,C19 H26 N2 O2,CCC1=CNC(=C1CC)C(O)=CC(=O)C1=C(CC)C(=CN1)CC,5.78350777
10490,HIBGUV,C14 H12 Br1 N1 O1 S1,COc1ccc(NC(=S)c2cccc(Br)c2)cc1,6.07358114
10491,HIBHEH,C27 H30 O4,CC(C)(C)c1ccc(cc1)C(CC(O)=O)=C1C=C(OC1=O)c1ccc(cc1)C(C)(C)C,5.30431529
10492,HIBHOP,C11 H9 Cl1 N2 O1,NC1=CC(=O)C=C(N1)c1ccc(Cl)cc1,6.16936522
10493,HIBLAF,C16 H18 O1,CC1=CC(=C2C=C(C=C2C(=C1)C)C1(O)CC1)C,5.491801730000001
10494,HIBPOA,C21 H19 N3,CC(C)c1ccc(Nc2cccc3nc4ccccc4nc23)cc1,4.76689043
10495,HIBPUG,C19 H12 F3 N3,FC(F)(F)c1ccc2nc3c(Nc4ccccc4)cccc3nc2c1,4.572601140000001
10496,HIBQIV,C18 H12 Cl1 N3,Clc1ccc2nc3cccc(Nc4ccccc4)c3nc2c1,4.62784025
10497,HIBTUI,C28 H18 S3,S1C=CC=C1C1=CC(=C(S1)C1=CC=CS1)C=Cc1c2ccccc2cc2ccccc12,5.234382030000001
10498,HIBVAQ,C30 H18 S3,S1C=CC=C1C1=CC(=C(S1)C1=CC=CS1)C=Cc1ccc2ccc3cccc4ccc1c2c34,5.16580934
10499,HIBVEU,C36 H26 O2 S6,COc1cc(C=CC2=C(SC(=C2)C2=CC=CS2)C2=CC=CS2)c(OC)cc1C=CC1=C(SC(=C1)C1=CC=CS1)C1=CC=CS1,4.751924170000001
10500,HIBYEW,C20 H16 O7,COc1cc(OC)c2C(=O)c3c(O)c4C5CCOC5Oc4cc3C(=O)c2c1,5.81480087
10501,HIBYOG,C18 H22 Cl2 N4 O4,CC(N=Nc1cc(Cl)cc(Cl)c1O)=C(N1CCOCC1)C(=O)N1CCOCC1,5.41207237
10502,HIBZEZ,C39 H30 P2 S3,C1Sc2ccccc2P2c3ccccc3SCc3ccccc3P(c3ccccc13)c1ccccc1CSc1ccccc21,6.21181498
10503,HICCED,C23 H14 O4,CCC1=C2C(=O)c3ccccc3C(=C2C2=C1C(=O)c1ccccc1C2=O)O,4.59110489
10504,HICDAA,C32 H39 N5 O9 S1,COc1ccc(cc1)N1C(C2COC(C)(C)O2)C(OC(=O)CCC2=CN(N=N2)S(=O)(=O)c2ccc(C)cc2)(C(=O)NC(C)(C)C)C1=O,5.84010746
10505,HICFAD,C42 H26,c1ccc(cc1)C#Cc1c(C#Cc2ccccc2)c2c(cccc2c2cccc(c3ccccc3)c12)c1ccccc1,5.2907096000000005