,ID,formula,smiles,HOMO_LUMO_gap
1876,BIDGUQ,C22 H24 O8 S2,CCOC(=O)C1=CC(C=C(S1)C(=O)OCC)=C1C=C(SC(=C1)C(=O)OCC)C(=O)OCC,3.9940870900000003
1877,BIDHUT,C29 H25 N5 O2,COc1ccc(cc1)N1C2=C(C3c4ccccc4C4C(=C(N)N=C1C34C#N)C#N)C(=O)CC(C)(C)C2,5.74704452
1878,BIDLAE,C48 H42 O2,COc1ccc(cc1)c1ccc2c(c1)C(=C1c3ccc(cc3C(=C21)c1c(C)cc(C)cc1C)c1ccc(OC)cc1)c1c(C)cc(C)cc1C,4.74920304
1879,BIDMEJ,C35 H30 N2 O4 S4,CCOC(=O)C1=C(C2=CC=C(C)S2)C2=C3N1CN1C(=C(C4=CC=C(C)S4)C(=C31)C1=C(C=C(C)S1)C1=C2SC(=C1)C)C(=O)OCC,5.49942092
1880,BIDNIM,C11 H15 N1 O3,CC(C)(C)CNC1=CC(=O)C(=CC1=O)O,5.439011649999999
1881,BIDRAH10,C18 H10 S2,S1Sc2c3ccccc3cc3cc4ccccc4c1c23,4.052591570000001
1882,BIDTOZ,C16 H19 N5,CCN(CC)c1ccc(cc1)N1N=C2C=CC(=CC2=N1)N,5.681192970000001
1883,BIDTUF,C16 H21 N5,CCN(CC)c1ccc(cc1)N=Nc1ccc(N)cc1N,5.14295177
1884,BIDVEP,C18 H24 N2 S4,CC(C)(C)C1=CC(SS1)=CC=NN=CC=C1SSC(=C1)C(C)(C)C,4.59001643
1885,BIDVIU,C41 H37 O6 P1,CCOC(=O)C(C(C(=O)c1ccccc1)C(=O)c1ccccc1)C(C(=O)OCC)=P(c1ccccc1)(c1ccccc1)c1ccccc1,5.74758875
1886,BIDZUK,C24 H21 O4 P1 S1,CC1(C)OC(=O)C(=C([O-])O1)S[P+](c1ccccc1)(c1ccccc1)c1ccccc1,5.5511225500000005
1887,BIFJAB,C30 H38 O4,CC1=CC=C(OC1=O)C(C)=CC=CC(C)=C1C(=O)CC2C3(C)CCC(=O)C(C)(C)C3CCC12C,4.5614444800000005
1888,BIFKUY,C27 H36 B1 F1 N2 O1,CC(C)c1cccc(C(C)C)c1[N+]1=C(C)C=C(C)N2c3cc(ccc3O[B-]12F)C(C)(C)C,5.93398674
1890,BIFRIT,C16 H10 Br2 N2 S3,BrCC1=NC2=C(SC(=C2N=C1CBr)C1=CC=CS1)C1=CC=CS1,4.36769942
1891,BIFROZ,C26 H32 N2 O2 S3,CCCCCCOC1=NC2=C(SC(=C2N=C1OCCCCCC)C1=CC=CS1)C1=CC=CS1,4.68443993
1892,BIFRUG,C22 H22 N4 O2,Oc1cccc2ccc(CNCCNCc3ccc4cccc(O)c4n3)nc12,6.65563267
1893,BIFSUE,C28 H22 N4,N(c1ccccc1)C1=CC(=Nc2ccccc2)N(c2ccccc2)C1=Nc1ccccc1,6.09453391
1894,BIFSUH,C34 H28 O1,CCc1ccc(cc1)C1=Cc2cc(O)c3ccccc3c2C(C1)(c1ccccc1)c1ccccc1,5.73643209
1895,BIFVIX,C40 H37 N1 O6,COc1ccc(CCN2C(=C(c3ccc(OC)cc3)c3ccc(OC)c(c4ccc(OC)cc4)c23)C(=O)c2ccc(OC)cc2)cc1,5.5304419000000005
1896,BIGBAU,C19 H30 N2 S8,CSC1=C2SCCCN(C)CCCN(C)CCCSC3=C(SC)SC(=C(S1)S2)S3,5.83139982
1897,BIGGOQ,C19 H13 N1 O1,O1C(=Nc2ccccc12)C=Cc1cccc2ccccc12,5.67956029
1898,BIGGUW,C22 H22 N4 O6,COc1ccc(OC)c2nc3N(C(C)=O)c4c(OC)ccc(OC)c4N(C(C)=O)c3nc12,5.80173941
1899,BIGHIL,C30 H38 N4 O6,CC(C)Oc1ccc(OC(C)C)c2nc3N(C(C)=O)c4c(OC(C)C)ccc(OC(C)C)c4N(C(C)=O)c3nc12,5.83384884
1900,BIGNIQ,C14 H13 N1 O4,CCOC(=O)c1ccc2cc(ccc2c1N)C(O)=O,5.861604460000001
1901,BIGXEU,C16 H10 O4,O=C(c1ccccc1)C(=O)C(=O)C(=O)c1ccccc1,6.2787549899999995
1902,BIGXEW,C52 H36 N2 S1,Cc1ccc(cc1)C1=C2SC(=C(c3ccc(C)cc3)C3=NC(=C(c4ccccc4)c4cccc5c4cccc5C(=C4C=CC1=N4)c1ccccc1)C=C3)C=C2,3.6659178
1903,BIGXOE,C16 H12 O5,OC(O)(C(=O)C(=O)c1ccccc1)C(=O)c1ccccc1,6.703796819999999
1904,BIGXOG,C17 H11 N1 O4,COc1cc2C=CN3C(=O)c4cc5OCOc5cc4c(c1)c23,5.95548373
1905,BIHHIK,C12 H12 N2 O2 S6,CNC(=O)C1=C(SC(S1)=C1SC2=C(SCCS2)S1)C(=O)NC,4.93015875
1906,BIHHOQ,C14 H16 N2 O2 S6,CCNC(=O)C1=C(SC(S1)=C1SC2=C(SCCS2)S1)C(=O)NCC,5.0403648500000005
1907,BIHHUW,C16 H20 N2 O2 S6,CCCNC(=O)C1=C(SC(S1)=C1SC2=C(SCCS2)S1)C(=O)NCCC,5.18404096
1908,BIHJAE,C18 H24 N2 O2 S6,CCCCNC(=O)C1=C(SC(S1)=C1SC2=C(SCCS2)S1)C(=O)NCCCC,4.91464825
1909,BIHJEI,C20 H28 N2 O2 S6,CCCCCNC(=O)C1=C(SC(S1)=C1SC2=C(SCCS2)S1)C(=O)NCCCCC,4.926077039999999
1910,BIHJIM,C24 H20 N2 O2 S6,O=C(NCc1ccccc1)C1=C(SC(S1)=C1SC2=C(SCCS2)S1)C(=O)NCc1ccccc1,5.12689706
1911,BIHKEI01,C8 H9 N1 O3,Cc1[nH+]cc2COC(O)c2c1[O-],5.81588933
1912,BIHKEL,C22 H21 N3 O2,CN(C)c1ccc(cc1)C1=C(C=C2N(C)c3ccccc3N2C)C(=O)C1=O,4.80525848
1913,BIHLAI,C12 H9 N3 O1,[O-][N+]1=NN(c2ccccc2)c2ccccc12,6.0866426
1914,BIHLOV,C22 H21 N1 O4,CC(=O)OC1CC(C)(C)N(O1)C(=O)c1c2ccccc2cc2ccccc12,5.50704011
1915,BIHROA,C30 H18 N4 O6,O=C1C=CC(=O)N1c1ccc(cc1)N(c1ccc(cc1)N1C(=O)C=CC1=O)c1ccc(cc1)N1C(=O)C=CC1=O,5.198463
1916,BIHSAN,C26 H17 N3 O4,O=C1C=CC(=O)N1c1ccc(cc1)N(c1ccccc1)c1ccc(cc1)N1C(=O)C=CC1=O,4.96526143
1917,BIHWOF,C26 H30 N4 O6,COc1cc(OC)cc(c1)C1=NOC(=N1)C(Oc1ccccc1C(=CN(C)C)C(=O)OC)=CN(C)C,6.22433221
1918,BIHWOH,C34 H34 N2 O2,Cc1ccc(cc1)C=C1CCCC2(C3CCCN3C3(C2c2ccc(C)cc2)C(=O)Nc2ccccc32)C1=O,6.222699540000001
1919,BIJBIG,C28 H18 N2,c1ccc(cc1)C#Cc1ccc(cc1)N=Nc1ccc(cc1)C#Cc1ccccc1,5.024310139999999
1920,BIJDEE,C24 H22 F3 N3 O3,COc1cccc(OC)c1c1cc(ccc1N=Nc1ccc(cc1)N(C)C)C(=O)C(F)(F)F,4.96090761
1921,BIJFAC,C18 H12 N2 S1,S1N=C2C(=CC=C(c3ccccc3)C2=N1)c1ccccc1,5.5756128
1922,BIJFEG,C42 H30 N4 S1,S1N=C2C(=CC=C(c3ccc(cc3)N(c3ccccc3)c3ccccc3)C2=N1)c1ccc(cc1)N(c1ccccc1)c1ccccc1,4.58729529
1923,BIJHAG,C29 H18 F6 N2,FC(F)(F)c1cc(cc(c1)C(F)(F)F)C(=Cc1ccc(cc1)N(c1ccccc1)c1ccccc1)C#N,5.07710023
1924,BIJKEN,C12 H8 N2 O5,COc1ccc2C=C([N+]3=NOC(=C3)[O-])C(=O)Oc2c1,5.47710758
1925,BIJKIR,C12 H7 Cl1 N2 O5,COc1ccc2C=C([N+]3=NOC(=C3Cl)[O-])C(=O)Oc2c1,5.417242529999999
1926,BIJLIR,C28 H22 O1,O=C1C(CCCC1=Cc1cccc2ccccc12)=Cc1cccc2ccccc12,5.773167450000002
1927,BIJLOX,C27 H20 O1,O=C1C(CCC1=Cc1cccc2ccccc12)=Cc1cccc2ccccc12,5.714662969999999
1928,BIJTUJ,C10 H12 N4,CCC1NN=C(N=N1)c1ccccc1,6.26324449
1929,BIJYUR,C40 H36 N4,CC(C)(C)c1ccc(cc1)N1C(=CC2=C1C=C(N2c1ccc(cc1)C(C)(C)C)c1ccc(cc1)C#N)c1ccc(cc1)C#N,5.29533553
1930,BIKDII10,C13 H7 F5 N2 O2 S2,Cc1ccc(cc1)S(=O)(=O)N=S=Nc1c(F)c(F)c(F)c(F)c1F,5.8588833099999995
1931,BIKGIN,C41 H38 O1,COC1(c2cccc(C)c2)C(=C(c2cccc(C)c2)C(=C1c1cccc(C)c1)c1cccc(C)c1)c1cccc(C)c1,5.84310071
1932,BIKHIO,C47 H29 N7,Cc1ccc(cc1)N1c2ccc(cc2c2cc(ccc12)N1c2ccccc2c2nc3ccccc3nc12)N1c2ccccc2c2nc3ccccc3nc12,5.49561132
1933,BIKHOU,C46 H28 N6,c1ccc2nc3c4ccccc4N(c4ccc(cc4)c4ccc(cc4)c4ccc(cc4)N4c5ccccc5c5nc6ccccc6nc45)c3nc2c1,5.705683219999999
1934,BIKHUA,C53 H32 N6,c1ccc2nc3c4ccccc4N(c4ccc(cc4)C4(c5ccc(cc5)N5c6ccccc6c6nc7ccccc7nc56)c5ccccc5c5ccccc45)c3nc2c1,5.78514046
1935,BIKJOU,C16 H14 O2,CCCC=C1Oc2c(ccc3ccccc23)C1=O,6.01480455
1936,BIKMAJ,C14 H10 O2,CC=C1Oc2c(ccc3ccccc23)C1=O,5.94650398
1937,BIKMAK,C22 H14 N4 S2,S=C1SC(=NN1c1cccc2ccccc12)N=Nc1cccc2ccccc12,4.77260483
1938,BIKMOX,C30 H21 N1 O9,COC1=CC(=O)c2c(O)c3C(=O)C4(CCc5cc6C=C(NC(=O)c6c(O)c45)C=CC=CC)C(=O)c3c(O)c2C1=O,4.39246178
1939,BIKPAN,C15 H16 O4,CC1=CC2=C(C)C3=C(C(=O)OC3=O)C(C)(C)C2(C)O1,5.03628314
1940,BIKPOC,C13 H11 F3 O4,COc1cc2CC(=C(O)C(F)(F)F)C(=O)c2cc1OC,6.162290260000001
1941,BIKQUJ,C26 H23 Br1 O4,CCOC(=O)C1C(CC(=CC1=O)c1cccc(Br)c1)c1ccc2cc(OC)ccc2c1,5.91194551
1942,BIKSAS,C17 H21 N1 O3,COCCNC(C)=CC(=O)C=C(O)C=Cc1ccccc1,5.657246949999999
1943,BIKSEW,C24 H27 N1 O3,CCCOc1ccc(C=CC(O)=CC(=O)C=C(C)NCc2ccccc2)cc1,5.576973359999999
1944,BILBAA,C23 H32 P2,Cc1cc(C)c(PC(=Pc2c(C)cc(C)cc2C)C(C)(C)C)c(C)c1,5.4656788
1945,BILDEH,C17 H13 N1 O4,COc1cccc(NC(=O)C2=CC(=O)c3ccccc3O2)c1,5.97915764
1946,BILDIL,C17 H13 N1 O4,COc1ccccc1NC(=O)C1=CC(=O)c2ccccc2O1,6.07140423
1947,BILGEI,C18 H16 O8,O=C1C2OCC(O2)C2C1C1C3COC(O3)C(=O)C1=C1C3OCC(O3)C=C21,6.5799850200000005
1948,BILJOX,C16 H9 F1 N2 S1,Fc1ccc(cc1)C=C(C#N)C1=Nc2ccccc2S1,5.71085338
1949,BILNUG,C45 H42 N4 O3 S3,Oc1ccccc1C=Nc1ccccc1SCCN(CCSc1ccccc1N=Cc1ccccc1O)CCSc1ccccc1N=Cc1ccccc1O,5.68282565
1950,BILNUH,C26 H19 Br1 N2 S1,CC1=Nc2c(S1)c(Br)ccc2c1ccc(cc1)N(c1ccccc1)c1ccccc1,5.68445834
1951,BILPIX,C24 H14 F6 S4,CC1=C(c2ccccc2S1)C1=C(C2=C(C)C3=C(S2)C2=C(S3)C(=CS2)C)C(F)(F)C(F)(F)C1(F)F,5.69588712
1952,BILQEU01,C10 H12 S3,CC1=C2CCCC3=C(C)SS(=C23)S1,5.22921186
1953,BILQIY,C33 H19 N1,c1ccc(cc1)C1=C2c3cccc4cccc(C(=C2c2ccccc12)C#Cc1ccccn1)c34,4.237901110000001
1955,BILQOE,C35 H22 O1,COc1ccc(cc1)C#CC1=C2c3ccccc3C(=C2c2cccc3cccc1c23)c1ccccc1,4.35572641
1956,BILQUK,C35 H22,Cc1ccc(cc1)C#CC1=C2c3ccccc3C(=C2c2cccc3cccc1c23)c1ccccc1,4.30620169
1957,BILRAR,C34 H20,c1ccc(cc1)C#CC1=C2c3ccccc3C(=C2c2cccc3cccc1c23)c1ccccc1,4.209329159999999
1958,BILROF,C23 H31 N5 O5,NC(C#N)=C(N=Cc1ccc(cc1)N1CCOCCOCCOCCOCCOCC1)C#N,5.27247797
1959,BILRUB10,C33 H36 N4 O6,CC1=C(C=C)C(NC1=O)=CC1=C(C)C(=C(CC2=C(CCC(O)=O)C(=C(N2)C=C2NC(=O)C(=C2C)C=C)C)N1)CCC(O)=O,4.9862142
1960,BILTUL,C31 H25 N2 O2 P1,CC(=O)Oc1ccc2cc(ccc2c1N=Nc1ccc(C)cc1)P(c1ccccc1)c1ccccc1,5.55738116
1961,BILVEX,C16 H18,CC1=CC=CC=CC=C(C)C=CC=CC=C1,4.645255540000001
1962,BILVIB,C29 H23 N2 O1 P1,Cc1ccc(NN=C2C(=O)C=Cc3cc(ccc23)P(c2ccccc2)c2ccccc2)cc1,4.83682369
1963,BILVUP,C21 H27 N5 O4,NC(C#N)=C(N=Cc1ccc(cc1)N1CCOCCOCCOCCOCC1)C#N,5.2632261
1964,BILWEZ,C18 H14 O2,CC(O)=CC(=O)c1c2ccccc2cc2ccccc12,5.413160830000001
1966,BILXAV,C31 H25 N2 O2 P1 S1,CC(=O)Oc1ccc2cc(ccc2c1N=Nc1ccc(C)cc1)P(=S)(c1ccccc1)c1ccccc1,5.53914954
1968,BILYAX,C19 H16 N2,N(c1ccccc1)C1=CC=CC=CC1=Nc1ccccc1,5.55520426
1969,BILYEB,C19 H14 Br2 N2,Brc1ccc(NC2=CC=CC=CC2=Nc2ccc(Br)cc2)cc1,5.528809219999999
1970,BILYIF,C17 H15 N3,N(c1ccccc1)C1=CC=CC=CC1=NN1C=CC=C1,5.48227775
1971,BILYOL,C15 H14 N4,N(N1C=CC=C1)C1=CC=CC=CC1=NN1C=CC=C1,5.62241638
1972,BIMAZT,C22 H19 Br1 O1 S1,CC(C)C1=CC2=C(C)CC3=C2C(=C(S3)C(=O)c2ccc(Br)cc2)C=C1,4.88498784
1973,BIMGOW,C44 H40 B1 N1 O1,COc1ccc(cc1)c1cccc2ccc3c(c4[n+](ccc5ccccc45)[B-]3(c3c(C)cc(C)cc3C)c3c(C)cc(C)cc3C)c12,5.25016463
1974,BIMGUC,C18 H11 N3 O2,O=C1C=CC(=O)c2c(cccc12)N1C=C(N=N1)c1ccccc1,4.91219923
1975,BIMJIT,C15 H14 O4,CC(C)(C)C(=O)Oc1cccc2C(=O)C=CC(=O)c12,6.399301430000001
1976,BIMNOA,C26 H16 N4,N#CC(C#N)=C1C=C2CCc3ccc(CCC1=CC2=C(C#N)C#N)c1ccccc31,3.75598748
1977,BIMPTS,C18 H21 N1 O2 S3,Cc1ccc(cc1)S(=O)(=O)C(Sc1ccccc1)=S=NC(C)(C)C,5.3930244
1979,BIMSNO,C18 H25 N1 O1 S1,Cc1ccc(C)c2C(=O)C(=S=NC(C)(C)C)C(C)(C)Cc12,5.50295839
1980,BIMTDZ10,C9 H7 N3 O1 S2,Cc1ccc(cc1)C(=O)N=C1SN=S=N1,5.53969377
1981,BIMTIB01,C18 H16 N2 O2,Cc1ccc(NC2=CC(=O)N(C2=O)c2ccc(C)cc2)cc1,6.0531726
1982,BIMWAW,C17 H16 O2,CC(=O)C1=C2CC(=CC=C1)C(=C1CCC1=C2)C(C)=O,5.67575069
1983,BINDEJ,C19 H25 N1 O1,O=C1CCC2CC3CCC(=CC3=CC2=C1)N1CCCCC1,5.29615187
1984,BINDIN,C15 H21 N1 O1,O=C1CCC2CCC(=CC2=C1)N1CCCCC1,6.03439675
1985,BINDPY,C16 H10 O1,O1c2ccccc2C=C2C1=Cc1ccccc21,5.44146067
1987,BINJUG,C25 H14 N4 O1 S1,N#CC1=CC=C(c2ccc3N(c4ccccc4)c4ccccc4Oc3c2)C2=NSN=C12,4.44661243
1988,BINKER,C32 H26 N2 S2,Cc1cc(C)c(c(C)c1)C1=C2C=C3C4=C(N=CS4)C(=C3C=C2C2=C1N=CS2)c1c(C)cc(C)cc1C,3.92442595
1989,BINLIT,C10 H17 N3 S4,CC(C)N(C(C)C)c1nc2[n+](C)c([S-])ss2s1,5.81670567
1990,BINMEQ08,C21 H20 O6,COc1cc(C=CC(O)=CC(=O)C=Cc2ccc(O)c(OC)c2)ccc1O,5.387582129999999
1991,BIPBIL,C37 H44 N4 O4,CCC1=C2NC3=C1C(=O)CC3=C1N=C(C=C3NC(=CC4=NC(=C2)C(=C4C)CC(C)C)C(=C3C)C(C)O)C(C)C1CCC(=O)OC,3.9810256299999995
1992,BIPBOR,C35 H40 N4 O4,CCC1=C(C)C2=NC1=CC1=C(CC)C3=C(N1)C(=C1N=C(C=C4NC(=C2)C(=C4C)C(C)O)C(C)C1CCC(=O)OC)CC3=O,3.92959611
1993,BIPHEB,C28 H16,c1ccc2c(c1)ccc1ccc3ccc4cc5c6ccccc6c5cc4c3c21,5.70677167
1994,BIPHEC,C32 H18,c1ccc2c(c1)ccc1ccc3ccc4ccc5cc6c7ccccc7c6cc5c4c3c21,5.61316451
1995,BIPKES,C20 H14 S2,C1Cc2cc(ccc2S1)C#CC#Cc1ccc2SCCc2c1,5.812623960000001
1996,BIPROH,C16 H14 Cl2 N4,Clc1ccc(CC2=NNC(=NN2)Cc2ccc(Cl)cc2)cc1,5.99466812
1997,BIPTID01,C7 H8 N2 O1 S1,NNC(=S)c1ccccc1O,6.0300429200000005
1998,BIPZOS,C20 H18 N4 O2 S1,CN1C(=O)N(C)C2=C(C(N3CCc4ccccc4C3=N2)C2=CC=CS2)C1=O,5.7524868
1999,BIPZUY,C26 H26 N4 O2,CCCN1C(=O)N(CCC)C2=C(C(N3C=Cc4ccccc4C3=N2)c2ccccc2)C1=O,5.78731738
2000,BIQBAH,C22 H20 N4 O2,CN1C(=O)N(C)C2=C(C(N3CCc4ccccc4C3=N2)c2ccccc2)C1=O,5.88854373
2001,BIQDIR,C22 H21 N1 O5,COC(=O)C1=C2C=C(C=CC=C2C(=C1C=C1CC(=O)N(C)C1=O)C=O)C(C)C,5.175061210000001
2002,BIQKUK,C31 H24 N2 O2,CC1=NN(c2ccccc2)C(=O)C21C(CC(=O)C2=Cc1ccccc1)c1cccc2ccccc12,6.08854741
2003,BIQXIK,C17 H13 Cl1 O2,OC(C=Cc1ccc(Cl)cc1)=CC(=O)c1ccccc1,5.6996967099999996
2004,BIQXOQ,C17 H14 O3,Oc1ccc(cc1)C=CC(O)=CC(=O)c1ccccc1,5.597654019999999
2005,BIQYIL,C24 H14 S2,C1Cc2cc(ccc2S1)C#CC#CC#CC#Cc1ccc2SCCc2c1,5.37343221
2006,BIQYOR,C22 H8 N2,N#Cc1ccc(cc1)C#CC#CC#CC#Cc1ccc(cc1)C#N,5.4205079099999995
2007,BIQYUY,C24 H27 N1 O2,CCCCN(CCCC)c1ccc(cc1)C=C1C(=O)c2ccccc2C1=O,5.13587681
2008,BIQZOS,C14 H5 Br3 O2,BrC1=CC(=O)c2c(Br)c3ccccc3c(Br)c2C1=O,5.52935344
2009,BIQZUY,C19 H19 N1 O2,CN(C)c1ccc(C=CC(O)=CC(=O)c2ccccc2)cc1,5.09505974
2010,BIRDUB,C18 H13 N3 O2,COc1ccc(cc1)C1=C(N=Nc2ccccc2)C(=CO1)C#N,5.40962335
2015,BIRKES10,C24 H40 N8 O4,OCCN(CCO)c1nc(N2CCCCC2)c2nc(nc(N3CCCCC3)c2n1)N(CCO)CCO,5.69507078
2016,BIRNEY,C20 H14 O4,O=CC1=C(c2ccccc2OC1)C1=C(COc2ccccc12)C=O,5.84174015
2017,BIRQIF,C12 H8 Cl2 N2 O1 S2,Clc1ccc(NC(=S)NC(=O)C2=CC=CS2)c(Cl)c1,6.07249269
2018,BIRTOO,C48 H38,CC(C)(C)c1cc2c3c4ccccc4c4ccccc4c3c3cc(cc4c5c6ccccc6c6ccccc6c5c(c1)c2c34)C(C)(C)C,5.00444583
2019,BIRWOR,C11 H10 N4,CN1N=C(C)c2nc3ccccc3nc12,5.64173646
2020,BIRWUU01,C11 H11 N1 O1 S1,CC(=O)C1=C(C)Nc2ccccc2S1,5.41697042
2021,BIRWUX,C16 H12 N4,CC1=NN(c2ccccc2)c2nc3ccccc3nc12,5.42458961
2022,BIRXAE,C21 H14 N4,c1ccc(cc1)N1N=C(c2ccccc2)c2nc3ccccc3nc12,5.07982136
2023,BIRZIL01,C18 H16 Cl1 N5 O4,COc1ccc(Cl)cc1NN=C(C(C)=O)C(=O)Nc1ccc2NC(=O)Nc2c1,5.46132498
2026,BISLUK,C12 H8 S1,S1C=Cc2cc3cccccc3c12,5.1497546199999995
2027,BISYAG,C36 H30 Br2,CC(C)(C)c1cc2c3ccccc3c(Br)c3c4cc(cc5c6ccccc6c(Br)c(c(c1)c23)c45)C(C)(C)C,5.05288209
2028,BISYEK,C34 H28 Br2 N2,CC(C)(C)c1cc2c3ncccc3c(Br)c3c4cc(cc5c6ncccc6c(Br)c(c(c1)c23)c45)C(C)(C)C,4.99682663
2029,BITBEL,C33 H29 O8 P1,COC(=O)C1=C(C(=O)OC)C2(CC(=C(c3ccccc3)P2(=C1C(=O)OC)c1ccccc1)c1ccccc1)C(=O)OC,5.49669978
2030,BITBEO,C12 H10 Cl2 N2 O2,ClC1=C(Cl)C(=O)C2=C(N=C3CCCCCN23)C1=O,5.8602438800000005
2031,BITBIS,C10 H6 Cl2 N2 O3,ClC1=C(Cl)C(=O)C2=C(N=C3COCCN23)C1=O,5.92283007
2032,BITBOY,C10 H6 Cl2 N2 O2,ClC1=C(Cl)C(=O)C2=C(N=C3CCCN23)C1=O,5.961742350000001
2033,BITBUE,C12 H10 Br2 N2 O2,BrC1=C(Br)C(=O)C2=C(N=C3CCCCCN23)C1=O,5.683097759999999
2034,BITCAL,C15 H8 Cl2 N2 O2,ClC1=C(Cl)C(=O)C2=C(N=C3N2CCc2ccccc32)C1=O,5.425405950000001
2035,BITCOZ,C20 H16 N2 O4 S1,COc1ccc(cc1)C1=NOC2(CS(=O)(=O)C12)c1cccc2cccnc12,6.1892295299999995
2036,BITDAL,C28 H24 N2 O2 S2,CC1=C2CC(=C2CN(C1)S(=O)(=O)c1ccc(C)cc1)c1ccccc1C1=Nc2ccccc2S1,5.87167266
2037,BITDOX,C26 H15 F6 O2 P1,FC1(F)C(=O)C(=C1[O-])C1=C([P+](c2ccccc2)(c2ccccc2)c2ccccc2)C(F)(F)C1(F)F,5.96310292
2038,BITFIW,C10 H6 Br2 N2 O2,BrC1=C(Br)C(=O)C2=C(N=C3CCCN23)C1=O,5.83575364
2039,BITGAP,C21 H18 O3,COC(=O)c1ccc(cc1)C1=C(C=Cc2ccccc2O1)C(C)=C,5.848815109999999
2041,BITGOD,C22 H20 O8,COC(=O)C12Oc3ccc(OC)cc3C1C(=O)C(=C2c1ccc(OC)c(OC)c1)O,5.8493593299999995
2042,BITLOH,C17 H11 N3 O2,O=C1NC(=Nc2ccccc12)C=C1C(=O)Nc2ccccc12,5.167442020000001
2043,BITLUN,C17 H11 N3 O2,O=C1Nc2ccccc2C1=CC1=NNc2ccccc2C1=O,5.274926990000001
2044,BITMAU,C18 H13 N3 O2,COc1c(C=C2C(=O)Nc3ccccc23)nnc2ccccc12,5.31873732
2045,BITMEY,C19 H12 Cl1 N3 O2,CC(=O)N1C(=O)C(=Cc2nnc3ccccc3c2Cl)c2ccccc12,5.167442019999999
2046,BITRUT,C22 H13 N3,N#CC1=C(c2ccccc2)c2ccccc2N2c3ccccc3N=C12,5.71248607
2047,BITSOO,C34 H23 N1,Nc1ccc(cc1)c1cc(c2ccccc2)c2c3cccc4cccc(c34)c2c1c1ccccc1,5.4390116399999995
2048,BITSUS,C33 H32,CC(C)(C)C1c2ccc3ccccc3c2c2c1cc(c1ccc3ccccc3c21)C(C)(C)C,5.5813271900000005
2049,BITSUU,C39 H28 N4,c1ccc(cc1)N(c1ccccc1)c1ccc(cc1)c1ccc(cc1)c1cc(nc(c1)c1ccccn1)c1ccccn1,5.7524868
2050,BITTED10,C16 H12,CC12C3=CC=C1c1ccccc1C2=CC=C3,5.402820500000001
2051,BITWAC,C18 H23 N3 O2,COC(=O)C1=C(C(N(C)C)N2c3ccccc3C(=C12)C)N(C)C,5.932081940000001
2054,BIVBAL,C15 H15 N1 O3 S2,CCSC(SCC)=C1C(=O)N(C(=O)C1=O)c1ccccc1,6.05126781
2055,BIVGIZ,C29 H30 N4 O2,C(CCN1CCOCC1)COc1ccc(cc1)c1cc(nc(c1)c1ccccn1)c1ccccn1,5.95221836
2056,BIVHEW,C38 H44 S2,CCCCCCCCC=C1C2=C(SC=C2)c2ccc3c(ccc4C5=C(C=CS5)C(=CCCCCCCCC)c34)c12,4.9905680199999995
2057,BIVQEF,C27 H19 N3 O2 S1,Oc1ccccc1C=Nc1ccc(cc1N=Cc1ccccc1O)C1=Nc2ccccc2S1,5.475747020000002
2058,BIVRAA01,C17 H15 N1 O3,CC(Nc1ccc(cc1)C(O)=O)=CC(=O)c1ccccc1,5.99847772
2059,BIVRED,C25 H26 N2 O1 S1,CC(C)Sc1cc2N=CC3(Oc2c2ccccc12)N(C)c1ccccc1C3(C)C,5.942694380000001
2060,BIVRIH,C28 H30 N2 O1 S1,CN1c2ccccc2C(C)(C)C21Oc1c(cc(SC3CCCCC3)c3ccccc13)N=C2,5.78078664
2061,BIVRII,C14 H13 N1 O2,Cc1ccc(NC=C2C=CC=CC2=O)c(O)c1,5.05778014
2062,BIVWEL,C38 H44 S2,CCCCCCCCC1=C2SC=CC=C2c2ccc3c(ccc4C5=CC=CSC5=C(CCCCCCCC)c34)c12,4.31518144
2063,BIVWIN,C22 H19 Cl2 N1 O5,COc1cc(C=Cc2ccc3c(Cl)cc(Cl)c(OC(C)=O)c3n2)cc(OC)c1OC,5.645546059999999
2064,BIVWUZ,C19 H15 N3 O3 S1,COC(=O)C=C1SC(=Nc2ccccc2)N(N=Cc2ccccc2)C1=O,5.80718169
2065,BIVXEJ,C10 H15 N5 O1,CN1C(=NC2=C(NC(C)(C)N=C12)C(N)=O)C,5.46649515
2067,BIVXUA,C33 H39 B1 N2,Cc1cc(C)c(c(C)c1)[B-](C#N)(c1cccc2cccc(C[N+](C)(C)C)c12)c1c(C)cc(C)cc1C,5.8196989199999996
2068,BIVZIP01,C16 H8,C1=CC2=C3C=C3C3=CC=CC3=C3C=C3C2=C1,5.4795566099999995
2069,BIWMUS,C30 H26 N4 O3 S1,COc1ccc2C=C(C3C=Cc4ccccc4C3NS(=O)(=O)c3ccc(C)cc3)N(c3ncccn3)c2c1,5.8409238000000006
2070,BIWNUQ,C20 H24 O5 S2,C1COCCOCC(COCCOCCO1)=C1C2=C(SC=C2)C2=C1C=CS2,5.73670419
2071,BIWNUT,C18 H14 N4 O2 S2 Se2,O=C(NC(=[Se])Nc1ccccc1NC(=[Se])NC(=O)C1=CC=CS1)C1=CC=CS1,5.3045874
2072,BIWQOQ,C18 H14 N4 O4 Se2,O=C(NC(=[Se])Nc1ccccc1NC(=[Se])NC(=O)C1=CC=CO1)C1=CC=CO1,5.307580650000001
2073,BIWVIM,C38 H46 N2 O10,C1COCCOc2ccc(cc2)N=Nc2ccc(OCCOCCOCCOCCOc3cccc4c(OCCOCCO1)cccc34)cc2,5.27655967
2074,BIWYUC,C14 H11 N5 O2,Oc1ccccc1NN=C(N=Nc1ccccc1O)C#N,4.862130280000001
2075,BIWZAJ,C20 H23 N5,Cc1cc(C)c(NN=C(N=Nc2c(C)cc(C)cc2C)C#N)c(C)c1,4.93342411
2076,BIWZEN,C16 H15 N5 O2,COc1ccccc1NN=C(N=Nc1ccccc1OC)C#N,4.79219702
2077,BIXGIY02,C13 H11 Cl1 N2 O2,Cc1c(Cl)cccc1Nc1ncccc1C(O)=O,5.85452949
2078,BIXGUL,C44 H36 N2 O4,CC(C)N(C(=O)c1ccc(cc1)C(=O)N(C(C)C)C(=O)c1c2ccccc2cc2ccccc12)C(=O)c1c2ccccc2cc2ccccc12,5.181319820000001
2079,BIXGUN,C40 H34 N1 O3 P1 S1,CN(c1ccccc1C(C(=O)c1ccccc1)=P(c1ccccc1)(c1ccccc1)c1ccccc1)S(=O)(=O)c1ccc(C)cc1,5.93480308
2080,BIXHAS,C54 H40 N2 O4,CC(N(C(=O)c1ccc(cc1)C(=O)N(C(C)c1ccccc1)C(=O)c1c2ccccc2cc2ccccc12)C(=O)c1c2ccccc2cc2ccccc12)c1ccccc1,5.19438129
2081,BIXHIA,C34 H25 N1 O2,CC(N(C(=O)c1ccccc1)C(=O)c1c2ccccc2cc2ccccc12)c1cccc2ccccc12,5.35220733
2082,BIXKAX,C19 H18 N2,C1CCN(C1)C1=NC(=Cc2ccccc2)c2ccccc12,5.5111218200000005
2083,BIXKUR,C19 H15 N1 O3,Cc1ccc2OC=C(CCN3C(=O)c4ccccc4C3=O)c2c1,5.8308555900000005
2084,BIXLIE,C15 H12 O1 S2,O=C1c2cccc3cccc(c23)C21SCCCS2,6.05045147
2085,BIXMIH,C33 H35 N3 O6 S1,COc1ccc2N(C)C3=C(CCN(C(=O)OC(C)(C)C)C43C(NS(=O)(=O)c3ccc(C)cc3)C(=O)c3ccccc43)c2c1,5.83820266
2086,BIXNAX10,C7 H8 N2 S4,C1C2C=CC1C1SN=S=NSSC21,5.96609617
2087,BIXNIG,C21 H24 N2 O5,CCCCc1ccc(cc1)C1=CC2=CN(C3CC(O)C(CO)O3)C(=O)N=C2O1,5.828950799999999
2088,BIXNOL10,C19 H26 N2 O3,CCC1=C(C)C(=NC1=CC1=C(C)C(=C(C)N1)CCC(=O)OC)OC,5.123087459999999
2089,BIXNOM,C22 H27 N3 O5,CCCCCCc1ccc(nc1)C1=CC2=CN(C3CC(O)C(CO)O3)C(=O)N=C2O1,5.66622671
2090,BIXNON,C16 H13 N1 O4,OC(=O)C=C([n+]1ccc(Cc2ccccc2)cc1)C(=O)[O-],4.8599533699999995
2091,BIXREF01,C38 H46 N4 O4,CCC1=C2NC3=C1C(=O)CC3=C1N=C(C=C3NC(=CC4=NC(=C2)C(=C4C)CC(C)(C)C)C(=C3C)C(C)O)C(C)C1CCC(=O)OC,3.9758554699999995
2092,BIXSAC10,C28 H29 Br1 N2 O5,COc1ccc(cc1OC)C(CN1CCN(CC1)C1=CC=CC=CC1=O)OC(=O)c1ccc(Br)cc1,6.03630154
2093,BIXSOQ10,C8 H6 N2 S3,CC1=C(SSC1=S)c1cnccn1,4.98104403
2094,BIXVOV,C32 H16 F6 N4,FC(F)(F)c1ccc2N3C(=Nc2c1)C1=C(N2c4ccc(cc4N=C2C1=C3c1ccccc1)C(F)(F)F)c1ccccc1,4.40497901
2095,BIXXOY,C36 H23 O1 P1,O=P1(c2ccccc2)c2cc3ccc4cccc5ccc(c3c45)c2C(=C1c1ccccc1)c1ccccc1,5.13859795
2096,BIXZIR10,C18 H17 N3 O2,CN1N(c2ccccc2)C(=O)C(=C1C)N=C1C=CC(=O)C(=C1)C,5.03138509
2097,BIXZOX10,C19 H19 N3 O2,CCc1ccc2OC3(C)N(C)N(C(=O)C3=Nc2c1)c1ccccc1,6.16637197
2098,BIXZUD10,C18 H17 N3 O2,CN1N(c2ccccc2)C(=O)C2=Nc3cc(C)ccc3OC12C,6.2983471799999995
2099,BIYGAU,C24 H19 N3 O3,COC(=O)C(CC1=CNC=N1)NC(=O)c1ccc2ccc3cccc4ccc1c2c34,5.697519799999999
2100,BIYGUL,C6 H2 Cl2 N2 O2,ClC1=CN2C=C(Cl)C(=O)N2C1=O,5.82922291
2101,BIYHAV,C34 H31 N3 O1,C1CN(CCO1)Cc1c2ccccc2cc2cc(ccc12)C1=NN(C(C1)c1ccccc1)c1ccccc1,4.8743754
2102,BIYMIH,C15 H10 I2 O2,OC(=CC(=O)c1ccc(I)cc1)c1ccc(I)cc1,5.88065242
2104,BIYRIM,C18 H14 N2 O4,CCN1C(=O)c2ccc3C(=O)N(CC)C(=O)c4ccc(C1=O)c2c34,5.66704305
2105,BIYSEK,C19 H17 N5 O2,COC(=O)Cc1ccc(cc1)C1=CN2N=CC(=C2N=C1)C1=CN(C)N=C1,5.78486835
2106,BIYVIP,C30 H37 N5,CC1=C(C)C(=C(N1)C=C1N=C(C=C2NC(=CC3=NC(C)(C#N)C(C)(C)C3)C(=C2C)C)C(=C1C)C)C,3.9788487200000002
2107,BIYVOV,C11 H10 N4 O3 S2,CN1C(=O)N(C)C2=C(N=C3C(=N2)SC=C3S(C)=O)C1=O,5.948953
2108,BIYWUC,C35 H33 N3 O1,CC1=CC(=C2C(=C(C=CC(=C2C(=C1)C)C)c1nc(N2CCCCC2)c(C#N)c2c3ccccc3C(=O)c12)C)C,4.65886124
2109,BIYXAJ,C24 H19 N3 O1,O=C1c2ccccc2c2c(C#N)c(nc(c3ccccc3)c12)N1CCCCC1,5.70432265
2110,BIYYAC,C30 H26 N6,CC12CC(=Nc3ccccc3N1)c1cccc(n1)C1=Nc3ccccc3NC(C)(C1)c1cccc2n1,5.957660649999999
2111,BIYZER,C31 H21 N1 O1,O=C(N1c2ccc3ccccc3c2C(=C1c1ccccc1)c1ccccc1)c1ccccc1,5.90895226
2112,BIYZUH,C14 H14 N2 O2,CC(=Nc1ccccc1N)c1ccc(O)cc1O,6.022967970000001
2113,BIZCOF,C14 H12 Cl1 N3 S1,NC(=S)NN=C(c1ccccc1)c1ccc(Cl)cc1,6.05616585
2114,BIZDAQ,C21 H21 N3 O4 S2,CCOC(=O)C1=C(SC(=C1C(=O)OCC)N=CC1=CC=CN1C)N=CC1=CC=CS1,4.81886418