,ID,formula,smiles,HOMO_LUMO_gap
6305,EGINOA,C19 H15 N1 O3,Cc1cc(ccc1N=Cc1c(O)ccc2ccccc12)C(O)=O,5.2966961
6306,EGIQUJ,C25 H16 N4 S1,CN(C)c1ccc(cc1)C#CC1=CC2=NSN=C2C=C1C#Cc1ccc(cc1)C#N,4.655323750000001
6307,EGIRAN,C21 H15 N1 O6,OC(=O)c1ccccc1N(c1ccccc1C(O)=O)c1ccccc1C(O)=O,6.040927479999999
6308,EGIRAQ,C24 H16 N2 O2 S1,COc1ccc(cc1)C#CC1=CC2=NSN=C2C=C1C#Cc1ccc(OC)cc1,5.34839773
6309,EGIREU,C26 H22 N4 S1,CN(C)c1ccc(cc1)C#CC1=CC2=NSN=C2C=C1C#Cc1ccc(cc1)N(C)C,4.7998162099999995
6310,EGIRIY,C24 H13 N3 O1 S1,COc1ccc(cc1)C#CC1=CC2=NSN=C2C=C1C#Cc1ccc(cc1)C#N,5.28309041
6311,EGIROE,C46 H30 N4 S1,S1N=C2C=C(C#Cc3ccc(cc3)N(c3ccccc3)c3ccccc3)C(=CC2=N1)C#Cc1ccc(cc1)N(c1ccccc1)c1ccccc1,4.80335369
6312,EGIRUH,C29 H14 F6 S6,FC1(F)C(=C(C2=C(SC(=C2)C2=CC=CS2)C2=CC=CS2)C(F)(F)C1(F)F)C1=C(SC(=C1)C1=CC=CS1)C1=CC=CS1,5.71303029
6313,EGIRUK,C33 H27 N3 O2,COc1ccc(NC2=C(N(c3ccccc3)C3=C2C(=O)N(C(=C3)C)c2ccccc2)c2ccccc2)cc1,5.72364273
6314,EGISOE,C16 H12 N2 O4,CCOC(=O)C(=NOC(=O)c1ccc2ccccc2c1)C#N,6.00827382
6315,EGIWAT,C19 H21 N3 O6 S2,OCCN(CCO)C(=S)SCN1C(=O)CCC(N2C(=O)c3ccccc3C2=O)C1=O,5.54295913
6316,EGIWEX,C21 H22 F1 N3 O2 S1,CCCC(=O)ON=CC1C(Sc2ccc(F)cc2)N(N=C1C)c1ccccc1,5.71683989
6317,EGIWEY,C14 H14 N2 O4,CCOC(=O)C1=C(N)NC(=C1)C(=O)c1ccccc1O,6.29753084
6318,EGIWOJ,C25 H27 B1 F2 O8,COc1ccc(C=CC2=CC(=[O+][B-](F)(F)O2)C=Cc2ccc(OC)c(OC)c2OC)c(OC)c1OC,5.01913997
6319,EGIXEX,C28 H24 N2 O2 S2,Oc1ccccc1C=Nc1ccccc1SCCSc1ccccc1N=Cc1ccccc1O,5.7503098900000005
6320,EGIYIC,C16 H11 Br1 O2,BrC1=CC(c2ccccc2)C2=C(C1)C(=O)C=CC2=O,5.542142800000001
6323,EGOKIW,C38 H54 O2 S4,CCCCCCCCCCCCOc1c2SC3=C(SC=C3)c2c(OCCCCCCCCCCCC)c2SC3=C(SC=C3)c12,5.53588417
6324,EGOMEU,C31 H27 B2 F4 N7 O2,CC1=NC2=[N+]3C(=CC=C2C(=C1)C)N=C(O[B-]3(F)F)c1ccc(cc1)N1C(=O)C[N+](Cc2ccccn2)(Cc2ccccn2)[B-]1(F)F,5.43302514
6325,EGOPIB,C10 H4 N2 S5,S1C=CSC1=C1SC2=CC3=NSN=C3C=C2S1,4.39110121
6326,EGOQAV,C16 H16 N12 O6,CCOC(=O)CC1=NC(=NN1)C1=NON=C1N=NC1=NON=C1C1=NC(=NN1)CC(=O)OCC,6.105690580000001
6327,EGOQOJ,C20 H15 Cl3 N2 O7,COc1ccc(cc1)C1=NN(C(=O)c2ccccc2O)C(O)(C1C(=O)C(Cl)(Cl)Cl)C(O)=O,6.2929049
6328,EGORIB,C7 H9 N3 S2,CC(=NNC(N)=S)C1=CC=CS1,5.803916320000001
6329,EGOROH,C13 H13 N3 S2,CC(=NNC(=S)Nc1ccccc1)C1=CC=CS1,5.80418843
6330,EGOSUR,C21 H20 N2 O2,COc1ccc2NC3=C(CCN(C)C(=C3)C(=O)c3ccccc3)c2c1,5.1998235699999995
6331,EGOTAY,C21 H20 N2 O2,COc1ccc2NC3=C(CCN(C)C=C3C(=O)c3ccccc3)c2c1,5.65370948
6332,EGOTOM,C21 H13 F3 N2 O1,Cc1ccc(cc1)C(=O)c1nc2cc3ccccc3cc2nc1C(F)(F)F,5.425133840000001
6333,EGOYUW,C20 H4 Br4 Cl4,Clc1cc(Br)c2c(Br)cc(Cl)c3c4c(Cl)cc(Br)c5c(Br)cc(Cl)c(c1c23)c45,4.83274198
6334,EGUBEP,C26 H27 N3 O2 S2,COCCOCCN1c2ccccc2c2cc(ccc12)C=NNC(=S)SCc1ccccc1,5.97480381
6335,EGUDAO,C28 H20 N2 O1,CC1(C)c2cc(ccc2c2ccc(cc12)N1c2ccccc2Oc2ccccc12)C#N,5.18485731
6336,EGUDER,C33 H26 N2,CN(C)c1ccc(cc1)C#Cc1ccc(cc1)c1cc(nc(c1)c1ccccc1)c1ccccc1,5.44227701
6337,EGUQAZ,C60 H36,c1ccc2c(c1)c1ccccc1C2=C1C=CC(=C2C=CC(=C3c4ccccc4c4ccccc34)C32c2ccccc2c2ccccc32)C21c1ccccc1c1ccccc21,4.11272874
6338,EGUQED,C30 H18,c1ccc2c(c1)c1ccccc1C2=CC#CC=C1c2ccccc2c2ccccc12,4.7249849
6339,EGUSOP,C23 H17 Cl1 N4 O2,CC1=NN(C(=O)C1=NNc1ccc(Cl)cc1C(=O)c1ccccc1)c1ccccc1,5.27737602
6340,EGUSOQ,C12 H21 N4 O2 P1 S2,CC(C)OP(=S)(NC(=S)Nc1cccc(N)n1)OC(C)C,6.151677820000001
6341,EGUTAD,C19 H24 Cl1 N4 O3 P1 S2,CC(C)OP(=S)(NC(=S)Nc1cccc(N=Cc2cc(Cl)ccc2O)n1)OC(C)C,5.71411875
6342,EGUTEH,C19 H24 Br1 N4 O3 P1 S2,CC(C)OP(=S)(NC(=S)Nc1cccc(N=Cc2cc(Br)ccc2O)n1)OC(C)C,5.67085264
6343,EGUTIK,C25 H23 Cl2 N1 O2,CN(C)c1ccc(cc1)C(CC(=O)c1ccc(Cl)cc1)CC(=O)c1ccc(Cl)cc1,5.60581743
6344,EGUTIL,C19 H23 Cl2 N4 O3 P1 S2,CC(C)OP(=S)(NC(=S)Nc1cccc(N=Cc2cc(Cl)cc(Cl)c2O)n1)OC(C)C,5.683369880000001
6345,EGUTOQ,C19 H13 Cl2 N1 O4,CC(=O)Oc1ccc(O)c(C=Cc2ccc3c(Cl)cc(Cl)c(O)c3n2)c1,5.657791179999999
6346,EGUXEM,C48 H50 N6,CCc1cccc(CC)c1N=C(C)c1cccc(n1)C(C)=Nc1cccc2c(cccc12)N=C(C)c1cccc(n1)C(C)=Nc1c(CC)cccc1CC,5.812351850000001
6347,EGUXIO,C13 H13 Cl1 N2 O1 S1,CC(=O)C1=C(C)NC(=S)NC1c1ccc(Cl)cc1,6.111404960000001
6348,EGUYAH,C22 H26 N4 O4 S2,O=C(NC(=S)NCCOCCOCCNC(=S)NC(=O)c1ccccc1)c1ccccc1,6.15167782
6349,EHADIA,C20 H12 N4,N1C=CC=C1C#Cc1ccc2ccc(nc2n1)C#CC1=CC=CN1,5.446358720000001
6350,EHAGEC,C34 H33 N1 O1,COc1ccc(cc1)C(=Cc1cc2cc(cc3ccc4cc(cc1c4c23)C(C)(C)C)C(C)(C)C)C#N,5.54404759
6351,EHAGIG,C37 H43 N1,CC(C)c1cccc(C(C)C)c1N=Cc1cc2cc(cc3ccc4cc(cc1c4c23)C(C)(C)C)C(C)(C)C,5.42404538
6352,EHAGUS,C19 H20 N2 O3,COC(=O)C1=NN2C(=C3COCC3=C2c2ccccc2)CCCC1,5.82051527
6353,EHAHIG,C22 H15 N5 O2 S1,CN(C(=C(C#N)C#N)C(c1ccccc1)=C(C#N)C#N)S(=O)(=O)c1ccc(C)cc1,5.9372521
6354,EHAHUS,C29 H21 N5 O3 S1,COc1ccc(cc1)C(=C(C#N)C#N)C(N(Cc1ccccc1)S(=O)(=O)c1ccc(C)cc1)=C(C#N)C#N,5.5807829600000005
6355,EHAJEE,C40 H28 N6 O2 S1,Cc1ccc(cc1)S(=O)(=O)N(Cc1ccccc1)C(=C(C#N)C#N)C(c1ccc(cc1)N(c1ccccc1)c1ccccc1)=C(C#N)C#N,4.6817188000000005
6356,EHAJUU,C27 H18 N6 O2 S1,Cc1ccc(cc1)S(=O)(=O)N(Cc1ccccc1)C(=C(C#N)C#N)C(c1cccnc1)=C(C#N)C#N,5.87330534
6357,EHAKOP,C27 H17 F5 N4,Nc1ccccc1C1=CC=C(N1)C(=C1C=CC(=N1)c1ccccc1N)c1c(F)c(F)c(F)c(F)c1F,4.30021518
6358,EHALUU,C24 H24 O4,CCCC1(O)c2ccccc2C(=O)C1=C1C(=O)c2ccccc2C1(O)CCC,6.153582610000001
6359,EHANAE,C23 H15 N5 O2,COC(=O)N(Cc1ccccc1)C(=C(C#N)C#N)C(c1ccccc1)=C(C#N)C#N,5.93806845
6361,EHAQOT,C30 H14,c1ccc2c(c1)c1ccc3c4ccc5c6ccc7c8ccccc8c7c6c5c4c3c21,5.300505690000001
6362,EHAQUZ,C36 H16,c1ccc2c(c1)c1ccc3c4ccc5c6ccc7c8ccc9c%10ccccc%10c9c8c7c6c5c4c3c21,5.10648852
6363,EHARAG,C42 H18,c1ccc2c(c1)c1ccc3c4ccc5c6ccc7c8ccc9c%10ccc%11c%12ccccc%12c%11c%10c9c8c7c6c5c4c3c21,4.94403655
6364,EHASEM,C29 H26 N4 O3,COc1cccc2c1Nc1c(ncc(OC)c21)C1CCC1c1ncc(OC)c2c1Nc1ccccc21,5.956572189999998
6365,EHATEN,C20 H16 N2 O3,COc1ccc2c(NC(=O)C2=C(C(C)=O)C2=CNc3ccccc23)c1,5.82867867
6366,EHBSAZ10,C18 H18 N6 S2,CCN1C(Sc2ccccc12)=NN=NN=C1Sc2ccccc2N1CC,5.90323787
6367,EHEDUR,C30 H30 B1 F12 N2 O1 P1,CC(C)(C)[P+](N=NO[B-](c1c(F)c(F)cc(F)c1F)(c1c(F)c(F)cc(F)c1F)c1c(F)c(F)cc(F)c1F)(C(C)(C)C)C(C)(C)C,6.10487423
6368,EHEFED,C36 H36 B1 F12 N2 O1 P1,Fc1cc(F)c(F)c(c1F)[B-](ON=N[P+](C1CCCCC1)(C1CCCCC1)C1CCCCC1)(c1c(F)c(F)cc(F)c1F)c1c(F)c(F)cc(F)c1F,6.48937111
6369,EHELIO,C19 H28 B1 N1 S2,Cc1cccc(C)c1[N+]1=C(C=C(C(C)(C)C)[B-]21SS2)C(C)(C)C,4.93560102
6370,EHELOU,C19 H28 B1 N1 S6,Cc1cccc(C)c1[N+]1=C(C=C(C(C)(C)C)[B-]21SSSSSS2)C(C)(C)C,5.80255575
6371,EHEMOU,C7 H7 N5,CN1C=CC(C=C1)=C1N=NN=N1,5.66840362
6372,EHEREQ,C31 H39 N2 P1,Cc1cc(C)c(N=C(P(c2ccccc2)C(=Nc2ccccc2)C(C)(C)C)C(C)(C)C)c(C)c1,6.29562604
6373,EHERIS,C7 H5 Br1 N2 O2,CC1=CC2=[N+]([O-])ON=C2C=C1Br,5.58187141
6374,EHEROY,C7 H5 I1 N2 O2,CC1=CC2=[N+]([O-])ON=C2C=C1I,5.56091865
6375,EHESEQ,C17 H14 I1 N1 O1,Ic1ccc(NC2C=CC(=O)C2c2ccccc2)cc1,6.15630376
6376,EHETIU,C14 H8 Cl2 N4,Clc1ccc(cc1)c1nnc(nn1)c1ccc(Cl)cc1,5.94296649
6377,EHETOA,C14 H8 Cl2 N4,Clc1cccc(c1)c1nnc(nn1)c1cccc(Cl)c1,6.1105886300000005
6378,EHEVES,C16 H14 N4,Cc1ccc(cc1)c1nnc(nn1)c1ccc(C)cc1,6.0798397600000005
6379,EHEVIW,C16 H14 N4 O2,COc1ccc(cc1)c1nnc(nn1)c1ccc(OC)cc1,5.59847036
6380,EHIMOY,C42 H32 N2,Cc1ccc(NC(C(Nc2ccc(C)cc2)=C2c3ccccc3c3ccccc23)=C2c3ccccc3c3ccccc23)cc1,4.66702465
6381,EHINEP,C40 H24 Br2 N2,Brc1ccc(NC2=C3c4ccccc4c4cccc(c34)C3(c4ccccc4c4ccccc34)C2=Nc2ccc(Br)cc2)cc1,5.10703275
6382,EHIPAN,C15 H14 N2 O1 S1,CN1C(=CC=C1C1=NC(=C(S1)c1ccccc1)O)C,5.71466298
6383,EHIQET,C9 H4 I2 O1,IC1=C(I)c2ccccc2C1=O,5.62105581
6385,EHITIZ,C15 H17 N1 O3,COc1nc(C)cc2CC3CCCC(=C3C(=O)c12)O,6.83250667
6386,EHIVAT,C30 H29 N1 O2,CC(C)OC1=C(c2ccccc2)C(=O)C(=Cc2ccccc2)C1=Nc1c(C)cc(C)cc1C,5.68908427
6387,EHIYEA,C24 H20 N8,CN1C(Nc2ccccc12)=NC1=NNC(=NC2=Nc3ccccc3N2C)c2ccccc12,5.58432044
6389,EHMOHN,C16 H18 O4,CC1=CC2C(=O)C(C)(O)C1C1C(=O)C(=O)C(=CC21C)C,6.66706145
6390,EHOBOT,C30 H39 N3,CCCCC1=C2NC(=C1C)C=CC1=NC(=CC3=NC(=C2)C(=C3CC)CC)C(=C1C)CCCC,4.74403287
6391,EHOCOT,C18 H23 N5 O1 S1,CN1N(C(=O)C(=C1C)C=NNC(=S)N1CCCCC1)c1ccccc1,5.93153771
6392,EHOJOA,C30 H20 N2 O2,[O-][n+]1ccccc1c1ccc2ccccc2c1c1c2ccccc2ccc1c1cccc[n+]1[O-],6.10705115
6393,EHOMOF,C25 H22 N2 O4,CN(CC(ON1C(=O)c2ccccc2C1=O)C(=O)c1ccc(C)cc1)c1ccccc1,4.843898660000002
6394,EHONOE,C15 H17 N1 O2,CC(C)(CO)NC=C1C(=O)C=Cc2ccccc12,5.6708526400000006
6395,EHONUK,C15 H17 N1 O3,CC(CO)(CO)NC=C1C(=O)C=Cc2ccccc12,5.71357452
6396,EHOPAS01,C15 H17 N1 O4,OCC(CO)(CO)[NH+]=Cc1c([O-])ccc2ccccc12,5.61561354
6397,EHOROI,C36 H27 N7,c1ccc(C=Nc2ccc(cc2)N(c2ccc(cc2)N=Cc2ccccn2)c2ccc(cc2)N=Cc2ccccn2)nc1,5.196286089999999
6398,EHOYUV01,C16 H16 N4 O1 S2,CNC1=NC(=C(S1)c1ccnc(SC)n1)c1ccc(OC)cc1,5.889087960000001
6399,EHPYRE10,C20 H20,CCC12C3=CC=C4C=CC=C(C=CC1=CC=C3)C24CC,4.53858691
6400,EHUCIT,C25 H27 N1 O2,CCCCCCC(C)OC(=O)Nc1ccc2ccc3cccc4ccc1c2c34,5.72799655
6401,EHUGIZ,C13 H10 Cl1 N1 O2,Clc1ccc2N3C(CCC3=O)C(=Cc2c1)C=O,5.83602575
6402,EHULAW,C22 H13 Cl1 F1 N3 O1 S1,Fc1ccc2NC(=O)C(=C3SN(N=C3c3ccc(Cl)cc3)c3ccccc3)c2c1,4.9707037
6403,EHULIC,C12 H13 I1 O3,CC1=C(I)C(=O)C2(C)CC(=O)CCC2C1=O,6.48909899
6405,EHUTEI,C23 H16 N2 O1,O=C1N(Cc2ccccc2)c2cccc3nc(cc1c23)c1ccccc1,5.791943310000001
6406,EHUWUB,C21 H15 Br1 N4,NC1=C(C#N)C(=C2N1CCC1=C2Nc2ccccc12)c1ccc(Br)cc1,5.69888037
6407,EHUXIO,C17 H16 N4 O1 S1,O=C(CC1N(N=Cc2ccccc12)C1=NCCN1)C1=CC=CS1,5.86296502
6408,EJABIB,C15 H11 N1 O3,Cc1cc2C(=O)c3cccc(O)c3C(=O)c2c(C)n1,6.155215300000001
6409,EJADIE,C27 H19 N3 O1,O=C(Nc1ccccc1c1nc2ccccc2c(n1)c1ccccc1)c1ccccc1,5.8809245400000005
6410,EJAGEC,C27 H25 N3 S1,CC1(CC(C1)C1=CSC(=N1)NN=Cc1ccc(cc1)c1ccccc1)c1ccccc1,5.84228437
6411,EJAHAZ,C20 H18 N6 O1,Cc1ccc(NC2=NNN=C2C(=O)N2N=C(C=C2C)c2ccccc2)cc1,5.71166972
6412,EJAHED,C15 H12 N2 O3 S1,OC(=O)c1ccc(NC(=S)NC(=O)c2ccccc2)cc1,6.09861562
6413,EJAHUT,C23 H15 Cl2 N3 O1,COc1nc2c(CCC3=C2Nc2ccccc32)c(c1C#N)c1c(Cl)cccc1Cl,5.39955514
6414,EJALOS,C28 H17 N4 P1 S1,S1N=C2C=C3C4=Cc5ccccc5N4P(N4c5ccccc5C=C4C3=CC2=N1)c1ccccc1,5.1356047
6415,EJAMAF,C27 H18 N3 O3 P1,CN1C(=O)C2=C(C1=O)C1=Cc3ccccc3N1P(=O)(N1c3ccccc3C=C21)c1ccccc1,4.44225861
6417,EJAWIW,C22 H18 O6,COC1=C(C(=O)Oc2c3C=CC(C)(C)Oc3ccc12)c1ccc2OCOc2c1,5.9568443
6418,EJAXIY,C26 H14 O2,O1c2cc3ccccc3cc2c2cc3Oc4cc5ccccc5cc4c3cc12,5.312478710000001
6419,EJAYOD,C16 H28 N11 O2 P3,CN(N)P1(=NP2(=NP(=N1)(N(C)N)N(C)N)Oc1ccccc1c1ccccc1O2)N(C)N,6.4401185000000005
6420,EJECUT,C20 H20 O7,COc1cc(C)c2C(=C(Oc2c1O)c1cc(OC)c(O)c(O)c1C(C)=O)C,5.84554973
6421,EJEFAA,C34 H28 O2,Cc1cc(C)cc(c1)C1c2ccccc2C(=O)C1=C1C(c2cc(C)cc(C)c2)c2ccccc2C1=O,5.8099028200000005
6422,EJEGAD,C20 H14 N1 P1,Cc1ccc(cc1)C1=Pc2cccc3c4ccccc4N1c23,5.58785792
6423,EJEGEF,C18 H20 O5,COc1ccc(C=Cc2cc(OC)c(OC)c(OC)c2)c(O)c1,5.826773879999999
6424,EJEGIL,C32 H24 F2 N2,CC12c3ccccc3C3(C)c4cc5nc6cc(F)c(F)cc6nc5cc4C(C)(c4ccccc14)C23C,5.60636166
6425,EJEHIM,C55 H42 O3,CC12c3ccccc3C3(C)c4cc5OC6(C(=O)C(=C(c7ccccc7)C6(Oc5cc4C(C)(c4ccccc14)C23C)c1ccccc1)c1ccccc1)c1ccccc1,6.02051895
6426,EJEMIR,C24 H23 N1 O6 S1,CCOC(=O)C=CC1C(CN(C)C21C(=O)c1ccccc1C2=O)S(=O)(=O)c1ccccc1,6.07630228
6427,EJENAI,C18 H17 N5 O2 S2,CSc1nc(SC)c2C=NN(CCCN3C(=O)c4ccccc4C3=O)c2n1,5.727996559999999
6428,EJENEM,C21 H22 N6 O2 S1,CSc1nc(N2CCCC2)c2C=NN(CCCN3C(=O)c4ccccc4C3=O)c2n1,5.5704426300000005
6429,EJEQOA,C24 H12 F6 O4,FC(F)(F)c1cccc(c1)C1=CC=C(O1)C(=O)C(=O)C1=CC=C(O1)c1cccc(c1)C(F)(F)F,5.67302955
6430,EJEQUG,C24 H18 O6,COc1ccccc1C1=CC=C(O1)C(=O)C(=O)C1=CC=C(O1)c1ccccc1OC,5.42867131
6431,EJESES,C44 H33 O1 P1,O=P(c1ccccc1)(c1ccccc1)C(=CC=C(c1ccccc1)c1ccccc1)C1=Cc2ccccc2C1=Cc1ccccc1,5.6605123200000005
6432,EJETAP,C22 H28 O5,CC(C)c1cc2C(=O)C(=O)C3(O)C(C)(C)CCCC3(C)c2cc1OC(C)=O,6.63821738
6433,EJEVEW,C54 H40 N2,c1ccc(cc1)C(c1ccccc1)c1cc(C(c2ccccc2)c2ccccc2)c(N=Cc2ccccn2)c2c(cccc12)c1ccc(cc1)c1ccccc1,5.95330682
6434,EJIHAI,C22 H15 N3 O1,N#Cc1ccc(OCCN2c3ccccc3c3ccccc23)cc1C#N,5.77697705
6435,EJIJAJ,C17 H19 N1 O1,C1CN(CCO1)Cc1ccc(cc1)C=C1C=CC=C1,5.9402453600000005
6436,EJIKUF01,C16 H17 N1 O3,CC(C)C(NC=C1C(=O)C=Cc2ccccc12)C(O)=O,5.64772297
6437,EJILEQ,C20 H17 N1 O3,OC(=O)C(Cc1ccccc1)NC=C1C(=O)C=Cc2ccccc12,5.672213220000001
6438,EJILIU,C15 H15 N1 O4,CC(O)C(NC=C1C(=O)C=Cc2ccccc12)C(O)=O,5.64037589
6439,EJILUG,C37 H25 N3 O2,CCOC(=O)C1=C(c2ccccc2)C(=C2N1C=Cc1ccccc21)c1nc2ccccc2nc1C#Cc1ccccc1,5.41125603
6440,EJIMAN,C50 H36 N4 O4,CCOC(=O)C1=C(c2ccccc2)C(=C2N1C=Cc1ccccc21)c1nc2ccccc2nc1C1=C2N(C=Cc3ccccc23)C(=C1c1ccccc1)C(=O)OCC,5.42295692
6441,EJINES,C26 H18 N4 O2,CCOC(=O)C1=C(c2ccccc2)C(=C2C=CC=CN12)c1nc2ccccc2nc1C#N,5.156829579999998
6442,EJIRIA,C12 H9 N3 O1,[O-][n+]1ccc(cc1)C(=[N+]=[N-])c1ccccc1,5.66323346
6443,EJISIB,C28 H26 F6 O6 S2,CCCCC1=C(OS(=O)(=O)C(F)(F)F)c2cc3c(cc2C1)c1cc2c(CC(=C2OS(=O)(=O)C(F)(F)F)CCCC)cc31,5.62813077
6444,EJIVAW,C16 H15 N3 O2,CC(=O)c1ccccc1NN=Nc1ccccc1C(C)=O,5.9097686
6445,EJIVEY,C30 H34 P2 S1,CC(C)(C)P(c1ccccc1)c1cccc2cccc(c12)P(=S)(c1ccccc1)C(C)(C)C,5.22948398
6446,EJIVIC,C30 H34 P2 S2,CC(C)(C)P(=S)(c1ccccc1)c1cccc2cccc(c12)P(=S)(c1ccccc1)C(C)(C)C,5.34458814
6447,EJIXAX,C25 H17 N1 O4 S1,Cc1ccc(cc1)S(=O)(=O)N1C(=O)C(=C(c2ccccc2)C1=O)C#Cc1ccccc1,5.481461400000001
6448,EJIYAZ,C20 H12 N4 O2 S2,CC1=CSC(=C1)C1=CC2=C(C=C(C3=CC(=CS3)C)C3=NON=C23)C2=NON=C12,4.32715445
6450,EJIZAZ,C12 H10 O2 S4,C1CSC2=C(SC=C2O1)C1=C2SCCOC2=CS1,5.9005167300000005
6451,EJIZEE,C26 H6 Cl8 N2 O4,Clc1c(Cl)c(Cl)c2C(=O)N(C(=O)c2c1Cl)c1cccc2C=CC(Nc12)=C1C(=O)c2c(Cl)c(Cl)c(Cl)c(Cl)c2C1=O,4.8134219
6452,EJOBAH,C16 H22 N2 O2 S6,CCCNC(=O)C1=C(SC(S1)=C1SC(=C(SC)S1)SC)C(=O)NCCC,5.07628389
6453,EJODAK,C43 H36 Cl2 N2 O3,CCN1C(=O)C2(N(C(C(c3ccc(Cl)cc3)C32CCC(=Cc2ccc(Cl)cc2)C3=O)c2ccc(OC)cc2)c2ccccc2)c2ccccc12,5.64309703
6454,EJOQIF,C27 H25 N3 O5,CCOC(=O)C1=C(N(C(=C(C#N)C1C1=Cc2ccccc2O1)N)c1ccc(C)cc1)C(=O)OCC,5.97670861
6455,EJOWOP01,C9 H9 Cl2 N1 O1,CNC(C)=C1C=C(Cl)C=C(Cl)C1=O,5.355472690000001
6456,EJOXAE,C27 H21 N3 S2,CN1c2ccccc2Sc2cc(ccc12)C=Nc1ccc2Sc3ccccc3N(C)c2c1,5.6199673599999995
6457,EJUDIY,C33 H28 N2 O1,Oc1ccccc1CNc1ccc(cc1)C=Cc1ccc(cc1)N(c1ccccc1)c1ccccc1,5.88854373
6458,EJUDOE,C33 H26 N2 O1,Oc1ccccc1C=Nc1ccc(C=Cc2ccc(cc2)N(c2ccccc2)c2ccccc2)cc1,5.42921555
6459,EJUNOM,C15 H14 S1,CC(C)C1=CC=C2C(=CC3=C2SC=C3)C=C1,4.927709719999999
6460,EJUPII,C22 H24 N2 O6 S2,CCOC(=O)C1=NN(c2cc(C)cc(C)c2)C2(S1)C=C(C)SC(=C2C(=O)OC)C(=O)OC,5.62214426
6461,EJURAE,C17 H9 Br1 N2 O2 S1,Brc1ccc(cc1)C1=CSC(=N1)N1C(=O)c2ccccc2C1=O,5.40091571
6462,EJUXIR02,C12 H10 N2 O3,CC(=O)NC1=CC(=O)c2ccc(C)nc2C1=O,6.036845770000001
6463,EJUZAM,C17 H16 N2 O1,CN(C)c1ccc(cc1)C=C(C#N)c1ccc(O)cc1,5.44227701
6464,EKAGOO,C25 H25 N1 O4,CC=C=C(c1ccc(C)cc1)C(C)(C)C(=O)OCCN1C(=O)c2ccccc2C1=O,5.601735730000001
6465,EKAKUW,C24 H14 N2 S1,S1c2ccccc2C(c2ccccc12)=C1c2ncccc2c2cccnc12,5.58676947
6467,EKATER,C22 H19 Cl1 N2 O2,Clc1ccc(cc1)C1=CC=C(N1C=C)C1=C(C#N)C(=O)C2(CCCCC2)O1,5.90160519
6468,EKAVIV,C5 H8 Cl8 N6 O4 P6,ClP1(=NP2(=NP(=N1)(Cl)OCC1(CO2)COP2(=NP(=NP(=N2)(Cl)Cl)(Cl)OC1)Cl)Cl)Cl,5.433025140000002
6469,EKEKEK,C39 H31 N1 O5,CN1CCC23C4Oc5c(OC(=O)c6cccc7ccccc67)ccc(CC1C2C=CC4OC(=O)c1cccc2ccccc12)c35,6.34270174
6470,EKEKOU,C5 H8 N6 O1 S2,CNC1=NSN=C1C(=O)NNC(N)=S,5.56527247
6471,EKEMIQ,C15 H13 N1 O4,COc1cc(O)c(c(OC)c1)C1=C2C=CC=CC2=NO1,6.003647880000001
6472,EKEMOW,C13 H9 N1 O1,O1N=C2C=CC=CC2=C1c1ccccc1,5.86949576
6473,EKEPIT01,C20 H16 N4 O2,COc1ccc(OC)c2nc(c3ccccn3)c(nc12)c1ccccn1,6.05779854
6474,EKETEV,C18 H19 N3 O1 S2,CC(C)(C)N=C1SC2=C3N1c1ccccc1N=C3OC(C)(C)C2=S,4.646344
6475,EKEVOF,C13 H14 N2 O6,COc1ccccc1NN=C1C(=O)OC(C(O)CO)C1=O,5.565000360000001
6476,EKEYEA,C20 H16 N2 O2,Oc1ccccc1C=Nc1ccccc1N=Cc1ccccc1O,5.97507593
6477,EKEZUR,C16 H4 F12 N2,FC(F)(F)c1ccc(c2nc3c(ccc(c3nc12)C(F)(F)F)C(F)(F)F)C(F)(F)F,5.8153451
6478,EKIBUX,C14 H6 F6 N2,FC(F)(F)c1cccc2nc3c(cccc3C(F)(F)F)nc12,5.77670494
6479,EKICAE,C15 H5 F9 N2,FC(F)(F)c1cc2nc3cccc(c3nc2c(c1)C(F)(F)F)C(F)(F)F,5.7690857399999995
6480,EKICEI,C15 H5 F9 N2,FC(F)(F)c1cccc2nc3c(ccc(c3nc12)C(F)(F)F)C(F)(F)F,5.776704929999999
6481,EKICIM,C17 H3 F15 N2,FC(F)(F)c1ccc(c2nc3c(nc12)c(cc(c3C(F)(F)F)C(F)(F)F)C(F)(F)F)C(F)(F)F,5.7796981899999995
6482,EKICOS,C18 H2 F18 N2,FC(F)(F)c1cc(c(c2nc3c(nc12)c(cc(c3C(F)(F)F)C(F)(F)F)C(F)(F)F)C(F)(F)F)C(F)(F)F,5.837386319999999
6483,EKICUY,C16 H4 F12 N2,FC(F)(F)c1cc2nc3c(ccc(c3nc2c(c1)C(F)(F)F)C(F)(F)F)C(F)(F)F,5.80663746
6485,EKIMAM,C30 H20,CC(C)(C)c1cc2cc(c1)C#Cc1ccccc1C#CC#Cc1ccccc1C#C2,5.636838409999999
6487,EKISUM,C24 H15 N3 O1,Oc1cccc2ccc(C=C(C#N)N3c4ccccc4c4ccccc34)nc12,5.36662936
6488,EKITEX,C25 H18 N2 O3,COC(=O)C(=Cc1ccc2cccc(O)c2n1)N1c2ccccc2c2ccccc12,5.63302882
6489,EKIWOK,C13 H13 N1 O4 S1,CC1OC(=O)N(C1=C=C)S(=O)(=O)c1ccc(C)cc1,5.9881373899999994
6490,EKIZOP,C31 H22 N2 O2,COc1ccc2N3C(=O)C4=C(c5ccccc5N4Cc4ccccc4)C3=C(c3ccccc3)c2c1,5.08063771
6491,EKODIT,C22 H16 N2 O2 S1,Cc1ccc(cc1)S(=O)(=O)C1=C(c2ccccc2)C(=[N+]=[N-])c2ccccc12,5.92255796
6492,EKODOZ,C44 H32 N2 O5 S1,COc1ccc(cc1)C1=C(Oc2ccccc2)c2ccccc2C1=NN=C1c2ccccc2C(=C1c1ccc(OC)cc1)S(=O)(=O)c1ccccc1,4.63818058
6493,EKOJIY,C27 H21 N1,N(C1c2ccccc2C(=C1c1ccccc1)c1ccccc1)c1ccccc1,5.97834129
6494,EKOMIA,C16 H15 N1 O5 S1,CCOC(=O)C1=C2C=CC=CC=C2C(=C1N=S=O)C(=O)OCC,5.53561206
6495,EKOROM,C19 H17 N1 O4,CCOc1cccc(C=Nc2ccc3C(=CC(=O)Oc3c2)C)c1O,5.75493583
6496,EKOVEH,C30 H22 Br2 N2 O1 S1,Cc1ccc(cc1)C1=CC(c2ccccc2Br)C2(CSC(=Cc3ccccc3Br)C2=O)C(=C1C#N)N,5.40608587
6497,EKOZOV,C17 H13 N1 O2,O=C1N(CC=Cc2ccccc2)c2ccccc2C1=O,6.04582553
6498,EKUBUJ,C16 H13 N3 O3 S1,NS(=O)(=O)c1ccc([NH+]=Nc2c([O-])ccc3ccccc23)cc1,5.03192932
6499,EKUDEV,C26 H16 S2,S1c2ccccc2Sc2c1cccc2c1c2ccccc2cc2ccccc12,5.465678799999999
6500,EKUDIZ,C26 H16 S2,S1c2ccccc2Sc2cc(ccc12)c1c2ccccc2cc2ccccc12,5.461052860000001
6501,EKUDOF,C26 H25 Br2 F1 N2 O2,CCCCN1C(=O)C2=C(N(CCCC)C(=O)C2=C1c1ccc(Br)cc1)c1ccc(Br)c(F)c1,4.72362433
6502,EKUDUL,C26 H24 Br2 F2 N2 O2,CCCCN1C(=O)C2=C(N(CCCC)C(=O)C2=C1c1ccc(Br)c(F)c1)c1ccc(Br)c(F)c1,4.6419901800000005
6503,EKUFAT,C22 H17 Br2 F1 N2 O2,CCN1C(=O)C2=C(N(CC)C(=O)C2=C1c1ccc(Br)cc1)c1ccc(Br)cc1F,4.657228550000001
6504,EKUHID,C23 H19 Br1 N2 O2 S1,Cc1ccc(cc1)S(=O)(=O)N1CC(=CC(=N1)c1ccccc1)c1ccc(Br)cc1,6.02813813
6506,EKULEC,C10 H8 F3 N3,CC(=NC(F)(F)F)N1C=C2C=CC=CC2=N1,6.02024683
6507,EKUNED,C19 H18 N2 O2 S2,CCC(=O)N1C(=S)c2ccccc2C21SC(C)C(=O)N1C=CC=CC21,5.53860532
6508,EKUNIH,C21 H22 N2 O2 S2,CC(C)C(=O)N1C(=S)c2ccccc2C21SC(C)(C)C(=O)N1C=CC=CC21,5.66568248
6509,EKUPUV,C22 H12 N2 S2,S1C(Sc2ccccc12)=C(C#Cc1ccncc1)C#Cc1ccncc1,5.36635724
6510,EKUQAC,C22 H12 N2 S2,S1C(Sc2ccccc12)=C(C#Cc1ccccn1)C#Cc1ccccn1,5.2553348
6511,EKUQEG,C24 H14 S2,S1C(Sc2ccccc12)=C(C#Cc1ccccc1)C#Cc1ccccc1,5.7293571199999995
6512,EKUWAJ,C28 H38 N1 O1 P1,CCCC[P+](CCCC)(CCCC)C(c1ccccc1)[C-](C#N)C(=O)c1ccccc1,6.14215384
6513,EKUZIU,C20 H22 Cl1 N1 O1 S3,CCCCSC1=C2C(=O)CC(C)(C)C=C2N(C(=S)S1)c1ccc(Cl)cc1,6.003103660000001
6514,ELADOK,C22 H14 N2 O2,O=C1N(Cc2cccc3cc4ccccc4nc23)C(=O)c2ccccc12,5.69507078
6515,ELADUQ,C21 H16 N2 O1,O=C(NCc1cccc2cc3ccccc3nc12)c1ccccc1,5.71575143
6516,ELAFAY,C23 H20 N2 O2,CN(C)c1ccc(cc1)C(=O)OCc1cccc2cc3ccccc3nc12,5.31329504
6517,ELAKOT,C33 H28 N2 O4,CCOC(=O)c1cc2ccccc2c2c1CN(Cc1c(cc3ccccc3c21)C(=O)OCC)c1ccncc1,5.70432265
6518,ELALOU,C20 H18 O6,COc1c(C)c(OC)c2C(=O)C3=C(Oc2c1C)c1c(O)cccc1CO3,5.99874983
6519,ELAQEO,C36 H22 F6 N2,Nc1ccc(c2ccc(N)cc2c2ccc(cc2)c2cc(F)c(F)c(F)c2)c(c1)c1ccc(cc1)c1cc(F)c(F)c(F)c1,5.722826390000001
6520,ELAYEX,C17 H13 Cl2 N3,CN1C=CC(=NN=Cc2ccc(Cl)cc2)c2ccc(Cl)cc12,5.4210521300000005
6521,ELAYIB,C17 H13 Cl1 F1 N3,CN1C=CC(=NN=Cc2ccccc2F)c2ccc(Cl)cc12,5.42703863
6522,ELAYOH,C17 H13 Cl1 F1 N3,CN1C=CC(=NN=Cc2cccc(F)c2)c2ccc(Cl)cc12,5.4104396900000005
6523,ELAYUN,C17 H13 Br1 Cl1 N3,CN1C=CC(=NN=Cc2ccccc2Br)c2ccc(Cl)cc12,5.35628903
6524,ELAZAU,C17 H12 Cl3 N3,CN1C=CC(=NN=Cc2cccc(Cl)c2Cl)c2ccc(Cl)cc12,5.28472309
6525,ELAZEY,C17 H13 Cl2 N3,CN1C=CC(=NN=Cc2cccc(Cl)c2)c2ccc(Cl)cc12,5.32526805
6526,ELAZIC,C17 H13 Cl1 F1 N3,CN1C=CC(=NN=Cc2ccc(F)cc2)c2ccc(Cl)cc12,5.5111218200000005
6527,ELAZOI,C17 H14 Cl1 N3,CN1C=CC(=NN=Cc2ccccc2)c2ccc(Cl)cc12,5.37642545
6528,ELEHUZ,C14 H19 N1 O2,OC1(CCCCC1)C[NH+]=Cc1ccccc1[O-],5.603912639999999
6529,ELEJAH,C10 H13 N1 O2,CC(=[NH+]CCO)c1ccccc1[O-],5.53098612
6530,ELEJUC,C34 H34 O7,COc1ccc2c3OC(C)(C)C(=Cc3cc(OC)c2c1)C1C(=O)c2cc(OC)c3cc(OC)ccc3c2OC1(C)C,5.43438571
6531,ELEKAI01,C16 H16 Br1 N1 O2,CC(NC=C1C=C(Br)C=CC1=O)C(O)c1ccccc1,5.38159562
6532,ELEWEZ,C42 H47 Cl1 N6 O3,CCCCC1=NC(=C2C=C(C=CN12)C(=O)NCCN1C(=O)c2ccccc2C21c1ccc(cc1Oc1cc(ccc21)N(CC)CC)N(CC)CC)Cl,5.977797069999999
6533,ELEWUP,C8 H8 N4 S1,CN1C(=S)NN=C1c1ccccn1,5.79847404
6534,ELEXAW,C7 H7 N5 S1,CN1C(=S)NN=C1c1cnccn1,5.54921775