,ID,formula,smiles,HOMO_LUMO_gap
1646,BEGPOU,C24 H18 N2 O1,O=C1N2C(=NC1=C(c1ccccc1)c1ccccc1)CCc1ccccc21,5.87167266
1647,BEGQAG,C14 H17 N1 O6,COC(=O)CCCC1=C(OC)C(=CC(=O)C1=O)NC(C)=O,5.7250033
1648,BEGREN,C21 H16 O4,COc1ccc2C(=O)C3=C(C(=O)c2c1)C(C)(C)c1ccccc1C3=O,5.65180467
1649,BEGVEQ,C22 H17 F1 N2 O1,CC1(C)Cc2nc3ccc(F)cc3c3C(=O)N(c4ccccc4)C(=C1)c23,5.85779486
1650,BEGVIU,C20 H10 Cl1 F1 N2 O1,Fc1ccc2nc3cccc4N(C(=O)c(c2c1)c34)c1ccccc1Cl,5.0942434
1651,BEGZET,C21 H18 O6 S3,COc1ccc(C(=O)C2=C(SC(=S)S2)C(=O)c2ccc(OC)cc2OC)c(OC)c1,5.223769590000001
1652,BEGZIX,C21 H18 O6 S2,COc1ccc(c(OC)c1)C1=C2SC(=O)SC2=C(O1)c1ccc(OC)cc1OC,5.62785865
1653,BEHCEX,C20 H24 O8,CCOC(=O)C(C(=O)OCC)=C1C=CC(C=C1)=C(C(=O)OCC)C(=O)OCC,5.03301778
1654,BEHCOJ,C45 H32 O4,CC(Cc1ccccc1)(C(=O)OCc1ccc2ccc3cccc4ccc1c2c34)C(=O)OCc1ccc2ccc3cccc4ccc1c2c34,5.282001950000001
1655,BEHMOT,C32 H22 N2 O4,COC(=O)c1c2C=C3C=C(c4ccccc4)C(C#N)(C#N)C3C=Cc2cc(c2ccccc2)c1C(=O)OC,5.58649735
1656,BEHMUZ,C32 H24 N2 O4,COC(=O)C1=C(C2C3C(=CC=CC2=CC1c1ccccc1)C=C(c1ccccc1)C3(C#N)C#N)C(=O)OC,5.46921628
1657,BEHNEK,C24 H24 N2 O6,CCN(CC)c1ccc2C=C(C=Nc3cc(cc(c3)C(=O)OC)C(=O)OC)C(=O)Oc2c1,5.391935950000001
1658,BEHROX,C25 H27 N1 O2,CC(C)=C1C2C(N(OC32CCCCC3C1=O)c1ccccc1)c1ccccc1,6.3590285699999995
1659,BEHSOZ,C16 H12 N4 O2 S2,CC1=CN=C(S1)N(N1C(=O)c2ccccc2C1=O)C1=NC=C(C)S1,5.39710612
1660,BEHXOB,C33 H20,Cc1c2c3cccc4cccc(c34)c2c(c2ccccc2)c2c3cccc4cccc(c34)c12,5.2556069
1661,BEHYOE,C14 H18 O2 S2,CC(C)(C)C1=C2SSC2=C(C(=O)C1=O)C(C)(C)C,4.78321727
1662,BEHZOF02,C28 H20 N2,c1ccc(C=Cc2c3ccccc3c(C=Cc3ccccn3)c3ccccc23)nc1,4.9154646
1663,BEJCAW,C19 H17 N1 O1,[O-][N+]1=C(C(CCC=C1)=Cc1ccccc1)c1ccccc1,5.85180835
1664,BEJGUU,C36 H22 O2,O1C2=CC3=CC(=CC4=CC(=CC5=CC=C(O5)C(=C1C=C2)c1ccccc1)c1ccccc41)c1ccccc31,4.056129060000001
1665,BEJHII,C24 H22 O9,COC1=C(OC)C2=C(C(CC1=O)c1ccccc1)C(=O)c1c(O)c(OC)c(OC)c(O)c1O2,6.12745969
1666,BEJJIJ,C32 H30 Cl2 O4 S2,Cc1cc(C)c(OCSc2ccc(Cl)cc2)c2OC3(CCc12)C(=CC(=C(OCSc1ccc(Cl)cc1)C3=O)C)C,5.93480308
1667,BEJKEG,C38 H54 N4,CCC1=C2NC(=C1CC)C=C1N=C(C=C3N=C(C=C4NC(=C2)C(CC)(CC)C4C)C(C)C3(CC)CC)C(=C1CC)CC,4.25939811
1668,BEJMEJ,C24 H32 N4 O1,CCCCCC(=O)N1CCN(CC1)c1ccc(cc1)N=Nc1ccc(CC)cc1,5.794120220000001
1669,BEJMIM,C23 H18 N2 O2,O=C1c2ccccc2C(=O)C21N(CCN2c1ccccc1)c1ccccc1,5.22186479
1670,BEJMIN,C32 H48 N4 O1,CCCCCCCCCC(=O)N1CCN(CC1)c1ccc(cc1)N=Nc1ccc(CCCCCC)cc1,5.40309261
1671,BEJMIO,C21 H22 N2 O2 Se1,Cc1cc(C)c(N2C(=O)C(=O)N(C2=[Se])c2c(C)cc(C)cc2C)c(C)c1,5.437923189999999
1672,BEJPEL,C15 H13 N1,C1C2=CC3=CC=CC=C(N3)C=C1C=CC=C2,5.39628977
1673,BEJPIP,C22 H28 F2 N2 O10,CC1(C)OC2C(CO)OC(NC3=C(F)C(=O)C(=C(F)C3=O)NC3OC(CO)C4OC(C)(C)OC34)C2O1,5.29234228
1674,BEJPOV,C20 H20 N2 O1,CCN(CC)C1=NC(=C(c2ccccc2)C1=O)c1ccccc1,4.734508890000001
1675,BEJSOY,C29 H47 N1 O6 S1,COC1CC=CC(O1)C(=O)OC1CC2CCC1(CS(=O)(=O)N(C1CCCCC1)C1CCCCC1)C2(C)C,6.102153100000001
1676,BEJXEU,C32 H30 N4,CN1C(N(C)c2cccc3cccc1c23)c1cccc(c1)C1N(C)c2cccc3cccc(N1C)c23,5.90840804
1677,BEJZEV,C28 H18 O6,Oc1cccc2C(C3c4cccc(O)c4C(=O)c4c(O)cccc34)c3cccc(O)c3C(=O)c12,6.40093411
1678,BEKREO10,C21 H24 O7,COc1c(O)c2C(=O)C3(O)C(OC(C)C3(C)C)c3c(C)cc(O)c(c1OC)c23,5.83738632
1679,BEKSIW,C4 H5 F1 N2 O2,[NH3+]CC1=C(F)C(=NO1)[O-],4.3772234
1680,BEKTUH,C24 H29 N5,CCCCC1C(=NC(=C(N=C1C=Cc1ccc(cc1)N(CC)CC)C#N)C#N)C,4.9502951600000005
1681,BEKVAP,C22 H25 N5,CCC1C(=NC(=C(N=C1C=Cc1ccc(cc1)N(CC)CC)C#N)C#N)C,4.97723444
1682,BEKVET,C20 H21 N5,CCN(CC)c1ccc(C=CC2=NC(=C(N=C(C)C2)C#N)C#N)cc1,4.92281167
1683,BEKVEU,C3 H6 As4 I6,I[As](I)C[As](I)C[As](I)C[As](I)I,5.6542537
1684,BELCEA,C22 H32 O6 S8,S=C1SCCOCCOCCOCCSC1=C1SC(S1)=C1SCCOCCOCCOCCSC1=S,5.09614819
1685,BELLOU,C32 H38 O10,COc1cc(C=Cc2cc(OCCO)c(C=Cc3cc(OC)c(OC)c(OC)c3)cc2OCCO)cc(OC)c1OC,5.0294803
1686,BELNIS,C26 H28 O2,CC1CCC2C(C1)C1(C(c3ccccc3)C2(C)C)C(=O)c2ccccc2C1=O,6.1984814
1687,BELTAQ,C19 H16,CC1(C)c2ccccc2C=C2c3ccccc3C=C12,5.57398011
1688,BELTEU,C30 H18 N2 O1,O1c2cc3nc4ccccc4nc3c3cccc(C(=C1c1ccccc1)c1ccccc1)c23,4.96526143
1689,BELWUL,C19 H23 N1 O3,CC(C)CC1=C(C(=O)NC1=O)c1ccc(OCC=C(C)C)cc1,5.73561574
1690,BELXIC,C32 H20 N2 S4,N#Cc1c(Sc2ccccc2)c(Sc2ccccc2)c(C#N)c(Sc2ccccc2)c1Sc1ccccc1,5.572347430000001
1691,BELXOI,C27 H20 F4 N2 O3,COc1ccc(cc1)C1=C(C(=O)C(F)(F)F)c2cc(C=Cc3ccc(F)cc3)cc(NC(C)=O)c2N1,5.64745085
1692,BELZIC,C34 H22 O2 S2,CC(=O)Sc1cccc(c1)C#Cc1c2ccccc2c(C#Cc2cccc(SC(C)=O)c2)c2ccccc12,4.48987854
1693,BELZOI,C38 H34 S2,CC(C)(C)Sc1ccc(cc1)C#Cc1c2ccccc2c(C#Cc2ccc(SC(C)(C)C)cc2)c2ccccc12,4.716277249999999
1694,BEMAON,C17 H15 N1 O6,CCOC(=O)C1=C(C(=O)OC)C2=C(OC1=O)c1ccccc1N2C,5.48118929
1695,BEMDAB,C30 H28 N4,CC1=CC(=Nc2cc3ccccc3cc2NC(=CC(=Nc2cc3ccccc3cc2N1)C)C)C,5.46785571
1696,BEMGUY,C17 H12 Br2 N2 O2,COC(=O)c1ccc(cc1)C(C1=CC=C(Br)N1)=C1C=CC(=N1)Br,4.69341969
1697,BEMLOU23,C30 H30 O8,CC(C)c1c(O)c(O)c(C=O)c2c(O)c(c(C)cc12)c1c(C)cc2c(C(C)C)c(O)c(O)c(C=O)c2c1O,6.05616586
1698,BEMQUI,C22 H18 N2 O3,Cc1ccc(cc1)C1N2N(C(=O)c3ccccc3C2=O)C2=C1C(=O)CCC2,6.01262764
1699,BEMRAP,C16 H16 B1 F2 N1 O1,CC(C)c1ccc(cc1)[N+]1=Cc2ccccc2O[B-]1(F)F,6.04500919
1700,BEMSIX,C22 H14 O6,COc1ccc2C(=O)C(=O)C=Cc2c1c1c(OC)ccc2C(=O)C(=O)C=Cc12,5.74405127
1701,BENBUU,C17 H19 N1 O3,COc1ccc(C=[NH+]CCc2ccccc2OC)c([O-])c1,5.87466592
1702,BENDEG,C12 H12 N2 O2,CN(C)c1ccc(cc1)C=C(C#N)C(O)=O,5.48799214
1703,BENLOX,C14 H8 S6,S1C=CC=C1C1=CSC(S1)=C1SC=C(S1)C1=CC=CS1,5.19574186
1704,BENLUD,C28 H20 N2,c1ccc2c(c1)c(C=Cc1cccnc1)c1ccccc1c2C=Cc1cccnc1,5.05995705
1705,BENMOX01,C26 H23 N3 O3 S1,OC1(CC(C(C(=O)c2ccccn2)C(O)(C1)c1ccccn1)C1=CC=CS1)c1ccccn1,6.20664481
1706,BENPRL01,C22 H24 F1 N3 O2,Fc1ccc(cc1)C(=O)CCCN1CCC(CC1)N1C(=O)Nc2ccccc12,6.29317702
1707,BENRAQ,C19 H16 N2 O6 S1,CC(O)=C1C(=O)C=C2Oc3c(c(O)c(C)c(O)c3C2(C)C1=O)C1=CSC(=N1)N,5.73507151
1708,BENZAN,C14 H9 N1 O2,O=C(c1ccccc1)C1=C2C=CC=CC2=NO1,5.72418696
1709,BEPDIJ,C16 H17 N3 S2,CSC(SC)=CC(c1ccc(cc1)N(C)C)=C(C#N)C#N,5.186217879999999
1710,BEPDOS,C19 H16 N2 O3,CC12OCC3=CC4=Cc5ccccc5N4C(=O)N3C1CC(=O)C=C2,5.8202431500000005
1711,BEPFAD,C16 H17 N3 S2,CSC(SC)=CC(c1ccccc1N(C)C)=C(C#N)C#N,5.11492405
1712,BEPFEH,C17 H20 N4 S1,CSC(=CC(c1ccccc1N(C)C)=C(C#N)C#N)N(C)C,5.20472162
1713,BEPMOA,C9 H12 N2 O2,CC([NH2+]Cc1ccncc1)C(=O)[O-],6.1394326999999995
1714,BEPMUG,C11 H16 N2 O2,CC(C)C([NH2+]Cc1ccncc1)C(=O)[O-],6.330184499999999
1715,BEPNAL,C23 H28 O3,COC1=CC(=O)OC(=C1C)C=CC=CC=CC(C)=CC(C)=CC(C)=CC,4.712195550000001
1716,BEPPOE,C35 H28 N4,Cc1ccc(cc1)N(c1ccc(C)cc1)c1ccc(cc1)c1cc(nc(c1)c1ccccn1)c1ccccn1,5.5905790500000005
1717,BEPQAR,C35 H28 N4,Cc1ccc(cc1)N(c1ccc(C)cc1)c1ccc(cc1)c1cc(nc(c1)c1ccncc1)c1ccncc1,5.51601986
1718,BEPZAZ,C26 H18 N2 O4,CCOC=NC1=C(C#N)C(c2cccc3ccccc23)C2=C(O1)c1ccccc1OC2=O,5.796297129999999
1719,BEQBOO,C20 H11 Cl5 O2,Clc1ccc(cc1)C1C(OC21C(=C(Cl)C(=O)C(=C2Cl)Cl)Cl)c1ccccc1,6.11330976
1720,BEQBUU,C20 H10 Cl6 O2,Clc1ccc(cc1Cl)C1OC2(C1c1ccccc1)C(=C(Cl)C(=O)C(=C2Cl)Cl)Cl,6.08664261
1721,BEQCAB,C21 H12 Cl6 O2,Cc1ccc(cc1)C1C(OC21C(=C(Cl)C(=O)C(=C2Cl)Cl)Cl)c1ccc(Cl)c(Cl)c1,6.074125370000001
1722,BEQCAD,C23 H15 Br1 N2 O4,CCOC(=O)C1=C2C(=O)N(C(=O)C2=C2N1C=Cc1ccccc21)c1ccc(Br)cc1,5.40445318
1723,BEQGOT,C21 H21 Cl1 N2 O1,CN1CCC2C(C1)C(=O)c1cc(Cl)cc3CCc4cccnc4C2c13,6.63712893
1724,BEQGUB,C24 H22 Cl1 N1,Cc1ccc(cc1C)N1Cc2ccccc2C1C=Cc1ccc(Cl)cc1,6.023784300000001
1725,BEQHAJ,C22 H19 Br1 O4,COc1ccc2cc(Br)ccc2c1C1=CC(=O)OC2=C1C(=O)CC(C)(C)C2,6.06079179
1726,BEQHEK,C36 H58 N2 S1,CC(C)(C)c1cc(c(N=S=Nc2c(cc(cc2C(C)(C)C)C(C)(C)C)C(C)(C)C)c(c1)C(C)(C)C)C(C)(C)C,5.44744717
1727,BEQHEL,C20 H13 N1 O5,CC(=O)OCc1cc2C(=O)C=CC(=O)c2nc1C1=Cc2ccccc2O1,4.90485215
1728,BEQHIP,C23 H25 F1 N2 O2,CC(NC(=O)C=Cc1ccccc1F)c1ccc2OCCN(CC3CC3)c2c1,5.613708730000001
1729,BEQUAC10,C6 H4 Cl2 N2 O2,NC1=C(Cl)C(=O)C(=C(Cl)C1=O)N,5.16608145
1730,BEQXAZ,C37 H39 B1 N2 O3 S1,Cc1ccc(cc1)S(=O)(=O)N(C1=[NH+][B-]2(OC(=C1Cc1ccccc1)c1ccccc1)C1CCCC2CCC1)c1ccccc1,5.8700399800000005
1731,BEQYII,C12 H12 N4 O1 S1,NC(=S)NN=C1C(=O)N(CC=C)c2ccccc12,5.18240828
1732,BEQYON,C32 H20 F6 O2,COc1ccc(cc1)C1=C2c3ccc(OC)cc3C(=C2c2ccc(cc12)C(F)(F)F)c1ccc(cc1)C(F)(F)F,4.60552692
1733,BEQYOO,C14 H16 N4 O1 S1,CCNC(=S)NN=C1C(=O)N(CC=C)c2ccccc12,5.265947239999999
1734,BEQYUT,C36 H34 O8,COc1cc(OC)cc(c1)C1=C2c3cc(OC)cc(OC)c3C(=C2c2cc(OC)cc(OC)c12)c1cc(OC)cc(OC)c1,4.54838301
1735,BEQYUU,C18 H16 N4 O1 S1,C=CCN1C(=O)C(=NNC(=S)Nc2ccccc2)c2ccccc12,5.27655968
1736,BEQZAA,C32 H26 O4,COc1cccc(c1)C1=C2c3cc(OC)ccc3C(=C2c2cc(OC)ccc12)c1cccc(OC)c1,4.74294442
1737,BEQZEE,C32 H14 F12,FC(F)(F)c1ccc(cc1)C1=C2c3ccc(cc3C(=C2c2ccc(cc12)C(F)(F)F)c1ccc(cc1)C(F)(F)F)C(F)(F)F,4.74729824
1738,BEQZII,C28 H18,c1ccc(cc1)C1=C2c3ccccc3C(=C2c2ccccc12)c1ccccc1,5.14839405
1739,BEQZOM,C13 H8 N6,c1cnc2c(c1)C(=NN1C=NN=C1)c1cccnc21,6.343518080000001
1740,BEQZUS,C26 H24 N4 O1,CN1C(=O)C2CCCC32N(N=C(N3c2ccccc12)c1ccccc1)c1ccccc1,5.82214795
1741,BERCAD01,C31 H24 O1,OC(Cc1c2ccccc2cc2ccccc12)Cc1c2ccccc2cc2ccccc12,5.3045874
1742,BERDAF,C31 H26 F6 S1,CC(C)C1=C2C(=C(S1)c1ccccc1)C(=C(C=Cc1ccccc1)C1=C2C(F)(F)C(F)(F)C1(F)F)C(C)C,5.6542537
1743,BERDUZ,C17 H11 N1 O1,Cc1ccccc1C1=C(C#N)c2ccccc2C1=O,5.454522129999999
1744,BERGAH,C23 H14 F6 O1 S2,COC12C(=C3C(=C4c5ccccc5SC14C)Sc1ccccc31)C(F)(F)C(F)(F)C2(F)F,4.74131173
1745,BERGIP,C26 H16 N8 O4,Oc1ccc(O)c2C3=Nc4cccc(N=C5NC(=Nc6cccc(N=C(N3)c12)n6)c1c(O)ccc(O)c51)n4,4.95165573
1746,BERKEO,C34 H24 O2,O1C(=CC(C=C1c1ccccc1)=C1C=C(OC(=C1)c1ccccc1)c1ccccc1)c1ccccc1,4.375590710000001
1747,BERMES,C48 H42 O4,COc1ccc(cc1)c1cc(c2ccc(OC)cc2)c2cc(c3ccc(OC)cc3)c3cc(cc4c(cc1c2c34)c1ccc(OC)cc1)C(C)(C)C,5.094515509999999
1748,BERMIW,C44 H34,CC(C)(C)c1cc2c(cc3c(cc(c4ccccc4)c4cc(c5ccccc5)c(c1)c2c34)c1ccccc1)c1ccccc1,5.31792098
1749,BERMUI,C22 H16 N2 O4,CCOC(=O)C(C(=O)c1ccccc1)=C1NC(=O)C(=C1c1ccccc1)C#N,5.975075929999999
1750,BERXEC,C29 H22 N2 O3,O=C(C=Cc1cc(OCc2ccccc2)cc(C=CC(=O)c2ccccn2)c1)c1ccccn1,6.02650545
1751,BERZON,C12 H2 F2 N4,FC1=CC(C(=CC1=C(C#N)C#N)F)=C(C#N)C#N,4.438993249999999
1752,BESBOT,C14 H15 N3 O2 S2,Cc1ccc(cc1)S(=O)(=O)NNC(=S)Nc1ccccc1,6.097255049999999
1753,BESCEI,C54 H36 N2,Cc1cc2c3ccc(C=Cc4ccc(cc4)c4cc(C)cc5c6ccc(C=Cc7ccc(cc7)c(c1)c2N=C1c2cccc7cccc(C1=Nc45)c27)cc6)cc3,5.5807829600000005
1754,BESCIL,C24 H21 N3 O2 S1,CNC(=NC1=NC(=O)C(S1)(c1ccccc1)c1ccccc1)c1ccc(OC)cc1,6.1699094500000005
1755,BESDAH,C25 H18 N2 O1,COc1ccc2cc(ccc2c1)C=C(C#N)c1ccc(cc1)c1ccncc1,5.4194194499999995
1756,BESDOV,C20 H14 Br1 N1 O1,COc1ccc2cc(ccc2c1)C=C(C#N)c1ccc(Br)cc1,5.61425296
1757,BESFIP,C11 H11 Br1 O3,CC12CC(=O)CCC1C(=O)C=C(Br)C2=O,6.69672186
1758,BESGAH,C12 H12 N2 O6,COC(=O)C1=C(C)C(=O)N2N1C(=C(C)C2=O)C(=O)OC,5.752758910000001
1759,BESHOZ01,C22 H23 N3 O3,CCN(CC)c1ccc(C=NNC(=O)c2cc3ccccc3cc2O)c(O)c1,5.46812783
1760,BESJUH,C19 H15 N1 O5,CC(c1ccc2OCOc2c1O)c1nccc2cc3OCOc3cc12,6.25426474
1765,BESSEZ,C26 H22 O2,CCOc1c2cc3ccccc3cc2c(OCC)c2cc3ccccc3cc12,3.75326634
1766,BESSID,C24 H18 O2,COc1c2cc3ccccc3cc2c(OC)c2cc3ccccc3cc12,3.7391164199999998
1767,BESSOJ01,C24 H12 F6,FC(F)(F)c1c2cc3ccccc3cc2c(c2cc3ccccc3cc12)C(F)(F)F,3.7568038199999996
1768,BESSUO,C24 H18 N8 O2,Nc1cccc(NC(=O)c2ccc3ccc4ccc(nc4c3n2)C(=O)Nc2cccc(N)n2)n1,5.44771929
1769,BESTEZ,C24 H16 N6 O2,O=C(Nc1ccccn1)c1ccc2ccc3ccc(nc3c2n1)C(=O)Nc1ccccn1,6.03575732
1770,BESVAW,C20 H18,C1CC2=CC(=CC3=CC=CC3=C2)CCc2ccc1cc2,4.9905680199999995
1771,BESVEA,C50 H36,c1ccc(cc1)C=C1C(=C(c2ccccc2)c2ccccc2)C(=C(c2ccccc2)c2ccccc2)C1=C(c1ccccc1)c1ccccc1,4.57722708
1772,BETBAD,C14 H10 O4 S1,OC1=CC=CC=C(SC2=CC=CC=C(O)C2=O)C1=O,5.08281461
1773,BETBEH10,C10 H8 O2,O=CC(C=O)=C1C=CC=CC=C1,5.1511151900000005
1774,BETFAH,C12 H10 N2 O2 S2,CSC1=C(C(N)=O)C(=S)OC(=N1)c1ccccc1,5.097508769999999
1775,BETFOV,C14 H14 N2 S2,CC1=C2CCCCC32SC(=C(C#N)C3(C)S1)C#N,5.82813445
1776,BETJER,C11 H13 N1 O4,CC([NH2+]Cc1ccc(cc1)C(O)=O)C(=O)[O-],5.7007851700000005
1777,BETKIV,C32 H38 N4 S4,CCCCC1=CSC(=N1)C1=NC(=C(S1)C#CC#CC1=C(CCCC)N=C(S1)C1=NC(=CS1)CCCC)CCCC,5.19601398
1778,BETLAO,C20 H22 N4 S4,CCC1=CSC(=N1)C1=NC(=C(S1)C1=C(CC)N=C(S1)C1=NC(=CS1)CC)CC,5.32907765
1779,BETNEU,C20 H14 O1 S1,CC(=O)C=CC1=C2C=CC=CC=C2C2=C1Sc1ccccc21,4.72525701
1780,BETNIY,C20 H14 O1 S1,CC(=O)C=CC1=C2C=CC=CC=C2C2=C1c1ccccc1S2,4.5345052
1781,BETPAU,C19 H16 O2,Cc1ccc(cc1)C1=CC(=CC(=O)O1)c1cccc(C)c1,5.94541552
1782,BETSUO,C50 H36 O2,O1C(=CC(C=C1c1ccccc1)=C1C(C(c2ccccc2)C1=C1C=C(OC(=C1)c1ccccc1)c1ccccc1)c1ccccc1)c1ccccc1,3.9638824599999998
1783,BEVCIO,C21 H22 N2 O8 S1,COC(=O)CCS(=O)C1C(N2C(=O)c3ccccc3C2=O)C(=O)N1C(=C(C)C)C(=O)OC,6.3097759700000005
1784,BEVFUD,C16 H22 N4 O4 P2 S2,CN(C)P1(=S)OCC(O1)C1OP(=S)(OC1c1cnc2ccccc2n1)N(C)C,5.987865279999999
1786,BEVNEW,C15 H16 N2 O2 S1,COc1ccccc1C=C1N=C2SCCCCN2C1=O,5.55683694
1787,BEVNIA,C15 H13 F3 N2 O1 S1,FC(F)(F)c1ccccc1C=C1N=C2SCCCCN2C1=O,5.6202394600000005
1792,BEVQIE,C37 H26 N2,N#CC(c1ccc(cc1)N(c1ccccc1)c1cccc2ccccc12)=C(c1ccccc1)c1ccccc1,5.4166983
1793,BEVQOK,C34 H26 N2,Cc1ccc(cc1)N(c1ccccc1)c1ccc(cc1)C(C#N)=C(c1ccccc1)c1ccccc1,5.01614672
1794,BEVQUQ,C33 H24 N2,N#CC(c1ccc(cc1)N(c1ccccc1)c1ccccc1)=C(c1ccccc1)c1ccccc1,5.373160090000001
1795,BEVRUP,C33 H28 O2,CC1(C)C(C(OC2=C1C(c1ccccc1)c1ccccc21)c1ccccc1)C(=O)c1ccccc1,6.16283449
1796,BEVTUU,C31 H27 N3 O3,CN1c2ccc(cc2C(C)(C)C21Oc1cc(N3CCc4ccccc34)c3ccccc3c1N=C2)C(O)=O,5.69779191
1797,BEVZIL,C22 H23 N1 O5,COC(=O)C1=CN(C)CCC23C4Oc5c(OC)ccc(CC=C2C1CC4=O)c35,5.06594355
1798,BEWFEO,C12 H16 N2 S2,S=C1C(=S)C(=C1N1CCCC1)N1CCCC1,5.3396900899999995
1799,BEWFEP,C24 H17 N3,N#Cc1ccc(cc1)C1C(Nc2ccc3ccccc3c12)c1ccncc1,6.07222058
1800,BEWFIS,C12 H16 N2 S2,S=C1C(=C([S-])C1=[N+]1CCCC1)N1CCCC1,5.01505827
1801,BEWKUJ12,C11 H11 N3 O2 S1,Nc1ccc(cc1)S(=O)(=O)N=C1NC=CC=C1,6.19439969
1802,BEWLOH,C11 H15 N5 S1,NC(=[NH+][N-]C(=S)N1CCCC1)c1ccccn1,4.5706963499999995
1803,BEWMUO,C16 H17 N1 O3,COc1cccc(C=[NH+]c2ccccc2C(C)O)c1[O-],4.95029517
1804,BEWNEY,C24 H26 N2 S1,CCCCCCc1ccc(cc1)C1=CC=C(S1)C1=Nc2ccccc2N1C,5.8172499
1805,BEWPOJ,C34 H26 O4,O=C1C2=C(CCCC2)C(=O)C(=C1C#CC1=C(C(=O)C2=C(CCCC2)C1=O)c1ccccc1)c1ccccc1,4.86294662
1806,BEWQAW,C32 H28 P2 S4,C1CCC2=C(P(P3C(=C4CCCCC4=C3C3=CC=CS3)C3=CC=CS3)C(=C2C1)C1=CC=CS1)C1=CC=CS1,4.6365479
1807,BEWZOV,C21 H12 N2 O3,Oc1ccccc1C1=Nc2ccc3C(=O)c4ccccc4C(=O)c3c2N1,5.282546180000001
1808,BEXFOC,C43 H26 F1 N3 O2,CC1(C)c2ccccc2N(c2ccccc12)c1c(F)c(C#N)c2Oc3ccc4ccccc4c3c3c(Oc2c1C#N)ccc1ccccc31,4.9410433
1809,BEXHES,C22 H15 N1 O2,Nc1c(cccc1C1=Cc2ccccc2O1)C1=Cc2ccccc2O1,5.9941239
1810,BEXHOC,C48 H32 N2 O4,CC(=Nc1c(cccc1C1=Cc2ccccc2O1)C1=Cc2ccccc2O1)C(C)=Nc1c(cccc1C1=Cc2ccccc2O1)C1=Cc2ccccc2O1,5.5603744200000005
1811,BEXKAS,C20 H22 N2,CN1C(=C(C)N(C)C1=C(c1ccccc1)c1ccccc1)C,5.685818909999998
1812,BEXKEW,C15 H20 N2,CN1C(=C(C)N(C)C1=C(C)c1ccccc1)C,5.775888589999999
1813,BEXLEY,C12 H21 N3 O6,OC(=O)CN1CC[NH+](CCN(CC1)CC(O)=O)CC(=O)[O-],7.48884528
1814,BEXRON,C15 H11 N1 O1,O=C1C=C(C=C2C=CC=CN12)c1ccccc1,5.69343809
1815,BEXTAZ,C28 H47 N1 O8,CCC1OC(=O)C(C)C(=O)C(C)C(OC2OC(C)CC(C2O)N(C)C)C(C)CC(C)C(=O)C=CC1(C)O,6.650734620000001
1816,BEXTEG,C19 H17 N3 O1,Oc1ccc(CNc2ccc(cc2)N=Cc2ccccn2)cc1,5.7603781000000005
1817,BEXYOV,C22 H22 Cl2 N4 O4,CCCCNC1=CC(=[NH+]CCCC)C(=O)C(=C1[O-])C1(C#N)C(=O)C(=C(Cl)C(=C1C#N)O)Cl,4.89532818
1818,BEXZAI,C28 H22 Br1 Cl1 N2 O2,ClCC12CCC(=CCN3C(=O)c4ccc(Br)cc4C3=O)C1(c1ccccc1)c1ccccc1N2,4.91464825
1819,BEYCEO,C23 H23 Cl1 F6 N2,CN(C1=C2C(=CC=CC2(C(F)(F)F)C(Cl)(C1)C#N)C(F)(F)F)C12CC3CC(CC(C3)C1)C2,6.0893637499999995
1820,BEYDIV,C23 H14 O3 S1,O=C1C2=C(C(Sc3ccccc3)c3ccccc3O2)C(=O)c2ccccc12,5.53016979
1821,BEYHAQ,C17 H12 O6,COC(=O)c1cc2C(=O)c3cc(C)cc(O)c3C(=O)c2cc1O,6.094533909999999
1823,BEYNIC,C24 H20 S4,C1CSC(S1)=C1C=C(C2Cc3ccccc3C2=C2SCCS2)c2ccccc12,5.54459182
1824,BEYNUQ,C40 H41 N4 P1,Cc1cccc(C)c1N=C1N(P(N(C1=Nc1c(C)cccc1C)c1c(C)cccc1C)c1ccccc1)c1c(C)cccc1C,6.0580706499999994
1825,BEYWAD,C15 H12 N2 O2 S1,CN(C)C1=CC(=O)C2=C(N=C(S2)c2ccccc2)C1=O,5.2240417
1826,BEYXEI,C28 H34 N4,CC1=C2NC(=C1C)C=C1N=C(CC1(C)C)C=C1CC(C)(C)C(=CC3=NC(=C2)C(=C3C)C)N1,4.215587770000001
1827,BEZGOE01,C18 H14 O2,CC(=O)c1ccc2cc3ccc(cc3cc2c1)C(C)=O,5.41234449
1828,BEZHAR,C18 H14 O2,CC(=O)c1cccc2cc3cccc(C(C)=O)c3cc12,5.3358805
1829,BEZHEV,C18 H14 O2,CC(=O)c1ccc2cc3cccc(C(C)=O)c3cc2c1,5.23846374
1830,BEZHIZ,C18 H14 O2,CC(=O)c1ccc2cc3c(cccc3C(C)=O)cc2c1,5.34758139
1831,BEZHUL,C16 H12 O1,CC(=O)c1ccc2cc3ccccc3cc2c1,5.4520731
1832,BEZTAD,C19 H10 Cl1 N5 O3,NC1=C(C#N)C2(N3N1C(=O)c1ccccc1C3=O)C(=O)Nc1ccc(Cl)cc21,5.89316966
1833,BEZYAH,C30 H34 O8,COc1cc(OC)c(C=Cc2cc(OC)c(C=Cc3c(OC)cc(OC)cc3OC)cc2OC)c(OC)c1,5.098325109999999
1834,BEZYAI,C27 H21 Cl1 N2 O2,Clc1ccc(cc1)C1C(C(ON1c1ccccc1)c1ccccc1)C(=O)c1ccccn1,6.373178489999999
1835,BEZYEL,C34 H42 O8,COc1cc(OC)c(C=Cc2cc(OC(C)C)c(C=Cc3c(OC)cc(OC)cc3OC)cc2OC(C)C)c(OC)c1,5.33424781
1836,BEZYOV,C44 H46 O8,COc1cc(OC)c(C=Cc2cc(OCCc3ccccc3)c(C=Cc3c(OC)cc(OC)cc3OC)cc2OCCc2ccccc2)c(OC)c1,5.12553649
1837,BEZZAJ,C9 H7 N1 O2,Nc1ccc2OC(=O)C=Cc2c1,5.987048939999999
1838,BFAXZO,C12 H7 Br1 F3 N1 O3,C[N+]1=C(OC(=C1C(=O)C(F)(F)F)[O-])c1cccc(Br)c1,5.740513789999999
1839,BFLTRN,C27 H37 Br1 O2,CC(CCC=C(C)C)C1CCC(COC(=O)c2ccc(Br)cc2)C2CCC(=CC12)C,5.007983299999999
1840,BGIFUL,C17 H16 Br1 Cl1 O6,COC1=CC(=O)CC(C)C21Oc1c(Cl)c(OC)c(Br)c(OC)c1C2=O,6.16365083
1841,BHXMPZ,C17 H17 Br1 N2 O2,CC1(C)C(Br)(N=NC1(OO)c1ccccc1)c1ccccc1,7.15251256
1842,BHYPOR,C14 H17 Br1 N2 O2,C[N+](C)(C)C(CC1=CNc2cc(Br)ccc12)C(=O)[O-],7.27686859
1843,BIBCUL,C20 H16 N4 O2 S2,C(OC1=NSN=C1C=CC1=NSN=C1OCc1ccccc1)c1ccccc1,5.95249048
1844,BIBFEX,C21 H44 N1 O7 P1,[NH3+]CCOP(=O)([O-])OCC(O)COC(=O)CCCCCCCCCCCCCCC,5.01233713
1846,BIBPOT,C28 H28 N2 S6,CCCCSC1=C(SCCCC)SC(S1)=C1Sc2c(S1)c(nnc2c1ccccc1)c1ccccc1,5.2809135000000005
1847,BIBPUZ,C40 H36 N2 S6,CCCCSC1=C(SCCCC)SC(S1)=C1Sc2c(S1)c(nnc2c1ccc(cc1)c1ccccc1)c1ccc(cc1)c1ccccc1,5.381595620000001
1848,BIBQAE,C18 H22 N2 O3,CCN(CC)c1ccc(C=[N+]([O-])Cc2ccccc2O)c(O)c1,5.715479309999999
1849,BIBRAF,C16 H10 F4,FC1(F)C2=CC=CC=C1C=C1C=CC=CC(=C2)C1(F)F,5.89153697
1850,BIBVAK,C5 H3 N11,CC1=C(N=[N+]=[N-])C2=NN=NN2N=C1N=[N+]=[N-],5.91602722
1851,BIBWIU,C21 H20 N4,N#CC(C#N)=C1C=CC(C=C1)=C(NCc1ccccc1)N1CCCC1,4.42702024
1852,BIBWOB,C17 H14 Br1 F1 O3,COc1ccc(cc1OC)C(=O)C=Cc1ccc(F)c(Br)c1,5.98160666
1853,BIBZER,C21 H18 N4 O2,COc1nc(C)cc(c1C#N)C(C(C)=C(C#N)C#N)=C1C=C(C)OC(=C1)C,5.59248386
1854,BIBZUJ03,C40 H28 N4 S2,S1C(=NC2=C1N=C(S2)c1ccc(cc1)N(c1ccccc1)c1ccccc1)c1ccc(cc1)N(c1ccccc1)c1ccccc1,5.0705694900000005
1855,BICCEV,C19 H24 N2 O4,COC(=O)C1=C(C)NC(=C(C1c1ccc(cc1)N(C)C)C(=O)OC)C,5.84418917
1856,BICJOO,C23 H19 N1 O1 S1,CCN1c2ccccc2Sc2cc(C=Cc3ccc(C=O)cc3)ccc12,5.31139025
1857,BICNAF,C12 H11 Br1 N2,Brc1cc2CCCNc2c2ncccc12,5.762282900000001
1858,BICNIN,C20 H14 Cl1 N3 O1 S1,Clc1ccc(cc1)C1=NC(=CC2=CC=CS2)C(=O)N1Nc1ccccc1,4.83219776
1859,BICNOT,C23 H14 Cl2 O1,Clc1ccc(cc1Cl)C(=O)C=Cc1c2ccccc2cc2ccccc12,5.23900796
1860,BICQEK,C42 H42 N6 O6,CC(C)COc1cc2nc3c(NC(=O)c4cc(OCC(C)C)c5cccc(NC(=O)c6cc(OCC(C)C)c7cccc(NC2=O)c7n6)c5n4)cccc13,5.99874984
1861,BICQEM,C39 H26 N2 O4,OC(=CC(=O)c1ccc(cc1)N1c2ccccc2Oc2ccccc12)c1ccc(cc1)N1c2ccccc2Oc2ccccc12,4.28579314
1862,BICQIQ,C41 H30 N2 O4,CC(C)(C(=O)c1ccc(cc1)N1c2ccccc2Oc2ccccc12)C(=O)c1ccc(cc1)N1c2ccccc2Oc2ccccc12,5.07165794
1863,BICQOU,C16 H11 N1 O1 S1,O=CC1=CC=C(S1)C=Nc1cccc2ccccc12,5.54350337
1864,BICREN,C19 H22 F1 N5 O2 S1,CCCCN1C=C(C(=O)c2cc(F)c(cc12)N1CCOCC1)C1=NNC(=S)N1,5.1693468199999995
1865,BICRIO,C15 H13 N1 O1,CCOc1cc2c(ccn1)cc1ccccc21,5.038460049999999
1866,BICTAJ,C18 H15 N1 O1,CC(=C)C(=O)Nc1cccc2cc3ccccc3cc12,5.43955587
1867,BICVAM,C38 H38 Br2 N2 O2 S2,CCCCCCc1ccc(cc1)N1C(=O)C(=C2N(C(=O)C(=C12)C1=CC=C(Br)S1)c1ccc(CCCCCC)cc1)C1=CC=C(Br)S1,4.7170936
1868,BICWUH,C19 H13 Cl1 N2 O3,COc1ccc(cc1)N1C(=O)c2c(C)nc3c(Cl)cccc3c2C1=O,5.58078296
1869,BICXUH,C34 H30 Cl2 N4,Cc1cc(C)c(N2C=CN(C2=NN=C2c3cc(Cl)ccc3c3ccc(Cl)cc23)c2c(C)cc(C)cc2C)c(C)c1,5.1396864099999995
1870,BICYAO,C34 H30 Br2 N4,Cc1cc(C)c(N2C=CN(C2=NN=C2c3cc(Br)ccc3c3ccc(Br)cc23)c2c(C)cc(C)cc2C)c(C)c1,5.14839405
1871,BICYIV,C28 H30 N2 O7,CCOC(=O)C(C(=O)OCC)=C1N(C(=O)C(=C1C(=O)OCC)Nc1ccc(C)cc1)c1ccc(C)cc1,5.58295987
1872,BICYOC,C24 H28 N4,CC(C)N1C(=C(C)N(C(C)C)C1=NN=C1c2ccccc2c2ccccc12)C,5.1810477200000005
1873,BICZAP,C16 H10 N2 S2,S1C=CSC1=NN=C1c2ccccc2c2ccccc12,5.39329652
1874,BICZOD,C23 H19 B1 F2 N4,Cc1ccc(cc1)N1C2=NC(=NC2=[N+](c2ccc(C)cc2)[B-]1(F)F)c1ccccc1,4.468653659999999
1875,BIDGAZ,C33 H38 N2 O3,CN1C(=O)C(C(ON2C(C)(C)CCCC2(C)C)C(=O)c2ccccc2)(c2ccc(C)cc2)c2ccccc12,6.3554911