,ID,formula,smiles,HOMO_LUMO_gap
7715,FEWVOV,C21 H14 N6,N1C=C(c2cc(nc(c2)c2cnccn2)c2cnccn2)c2ccccc12,5.97779707
7716,FEWWAI,C24 H20 S6,C1CSC2=C(S1)SC(S2)=C1SC=C(S1)c1cc2CCc3ccc(CCc1cc2)cc3,5.343499680000001
7717,FEWWEM,C26 H22 O4 S4,COC(=O)C1=C(SC(S1)=C1SC=C(S1)c1cc2CCc3ccc(CCc1cc2)cc3)C(=O)OC,4.80008832
7718,FEWYIR,C14 H11 F3 N2 O1,CC(Nc1cccc2cccnc12)=CC(=O)C(F)(F)F,5.8526247
7719,FEWYOX,C19 H13 F3 N2 O1,FC(F)(F)C(Nc1cccc2cccnc12)=CC(=O)c1ccccc1,5.64663451
7720,FEXDET,C20 H19 N1 O2 S1,OC1C(C(NC(=S)C2CC2)c2ccccc12)C(=O)c1ccccc1,6.07303692
7721,FEXJUP,C9 H13 N1 O3,CC(=O)C(=O)C(=O)N1CCCCC1,6.973461650000001
7722,FEXPAA,C19 H19 N1 O4 S1,COC(=O)C1(CC2=CC(SC(=C2C1)C)=Nc1ccccc1)C(=O)OC,6.08963586
7723,FEXPIJ,C34 H26 N2 O10,COC(=O)C(Cc1ccc(O)cc1)N1C(=O)c2ccc3C(=O)N(C(Cc4ccc(O)cc4)C(=O)OC)C(=O)c4ccc(C1=O)c2c34,4.76634621
7724,FEXPOQ,C17 H13 N3 O1,Cc1ccc2NC(=O)C(=Cc2c1)C1=Nc2ccccc2N1,5.67901606
7725,FEXRIK,C18 H15 N1 O2,COc1cccc(C=Nc2cccc3ccccc23)c1O,5.84908722
7726,FEXSUW,C16 H13 N1 O5 S1,COC(=O)CC1=C(C(=O)OC)C2=CSc3ccccc3N2C1=O,4.957914349999999
7727,FEXVEL,C30 H23 N1 O2 S1,CN1C(=C2c3ccccc3C(=C2c2cc(C)ccc2S1(=O)=O)c1ccccc1)c1ccccc1,5.4403722100000005
7728,FEYBAO,C23 H16 O1,COc1ccccc2cc3ccc4ccc5ccccc5c4c3c12,4.5225322
7729,FEYBES,C23 H16 O1,COc1ccccc2c1cc1ccc3ccc4ccccc4c3c21,4.6994062
7730,FEYBIU01,C23 H30 O3,CCOC(=O)C=C(C)C=CC=C(C)C=Cc1c(C)cc(OC)c(C)c1C,5.28744423
7731,FEYDES,C38 H47 Br1 N4 O7,CC1CC(C)C=C(C)CC(C)C(=O)NC(C)C(=O)N(C)C(CC2=C(Br)Nc3ccccc23)C(=O)NC(CC(=O)O1)c1ccc(OC(C)=O)cc1,5.85616218
7732,FEYJOK,C24 H15 Cl1,Clc1ccc(cc1)C(=CC#Cc1ccccc1)C#Cc1ccccc1,5.59466077
7733,FEYKUP,C21 H19 Br1 N2 O1 S1,Brc1ccc(cc1)C(=CN1CCOCC1)N1C=Cc2ccccc2C1=S,5.71384663
7734,FEYMED,C34 H35 N5 O2,CCN(CC)c1ccc2c(Oc3cc(ccc3C32N(N=Cc2ccccn2)C(=O)c2ccccc32)N(CC)CC)c1,5.97425958
7735,FEYSOT,C18 H19 N3 S1,CCCCN1C(=S)N(N=Cc2ccccc2)c2ccccc12,5.91793202
7736,FEYVIQ,C16 H10 N4 S2,CCC1=CC=C(S1)C1=CC=C(S1)c1cnc(C#N)c(n1)C#N,4.98621419
7737,FEYVIR,C30 H25 N1 O3,COC(=O)c1cc2ccccc2c(c1O)c1c(NC(C)c2ccccc2)ccc2ccccc12,5.7976577
7738,FEYXIS,C40 H16,C1CC2=CC3=C4C5=C6C(=CC1=C25)C1=CC=CC2=C5C=CC7=C8C5=C5C(=C12)C6=C4C1=C5C8=C(C=C7)C2=CC=CC3=C12,4.72634547
7739,FEYXOY,C38 H14,C1=CC2=C3C=CC4=CC=C5C6=CC=CC7=C6C6=C8C5=C4C3=C8C3=C2C(=C1)C1=C2C4=C(C7=CC=C4C=C1)C6=C32,4.729610840000001
7740,FEYYUD,C20 H16 O7,OC1OC(=O)C(=Cc2ccc3OCOc3c2)C1Cc1ccc2OCOc2c1,6.114398219999998
7741,FEYZER,C16 H10 N4,N1c2cc3c(Nc4ncccc34)cc2c2cccnc12,5.7214658300000005
7742,FEZCOF,C25 H15 N1 O2,O=C1c2ccccc2Oc2ccc(cc12)N1c2ccccc2c2ccccc12,5.54486393
7752,FEZRIL,C33 H21 Cl1,ClC(c1ccccc1)=C1c2cccc3cccc(c23)C21C(=C2c1ccccc1)c1ccccc1,5.66105655
7753,FEZXAM,C20 H18 N4 O1,NC1=NN2C(=CC=NC2=C1CC(O)c1ccccc1)c1ccccc1,5.98868163
7754,FEZXEQ,C12 H12 N6 O1,NC1=NN2CCC(=O)NC2=C1N=Nc1ccccc1,5.90786381
7755,FEZYER,C12 H13 N7,NC1=NN(CCC#N)C(=C1N=Nc1ccccc1)N,6.04827455
7756,FHELCA,C31 H22 O2,CCOC(=O)C1C2C=C3C=Cc4ccc5ccc6cccc7C1C3(c1ccccc21)c4c5c67,5.69180541
7757,FHFPBY,C21 H23 F2 N1 O2,OC1(CCN(CCCC(=O)c2ccc(F)cc2)CC1)c1ccc(F)cc1,6.74134853
7759,FIBQIT,C16 H15 N1,CNCc1c2ccccc2cc2ccccc12,5.56636093
7760,FIBSEQ,C16 H13 N1 O1 S1,[O-]c1ccc2ccccc2c1C=[NH+]CC1=CC=CS1,5.695615
7761,FIBTUI,C26 H26 O5 S1,CCOC(=O)CCC1OC2=C(Sc3ccc(C)cc23)C(=C1c1ccccc1)C(=O)OCC,5.58649736
7762,FIBVAQ,C24 H21 Cl1 O7 S1,CCOC(=O)CCC1OC2=C(C(=C1c1ccccc1)C(=O)OC)S(=O)(=O)c1ccc(Cl)cc21,5.70976492
7763,FIBVES,C27 H19 N3 O3,OC(=O)c1ccccc1NN=[N+]([O-])C12c3ccccc3C(c3ccccc13)c1ccccc21,6.26678198
7764,FIBVOC,C26 H17 N1 O1,O=C1C=CC(C=C1)=NC12c3ccccc3C(c3ccccc13)c1ccccc21,5.2751991
7765,FIBWET,C14 H22 N4 S1,CCCN(CCC)c1ccc(cc1)C=NNC(N)=S,5.9696336599999995
7766,FIBXUM,C28 H14,c1ccc2cc3c4ccc5ccc6ccc7ccc(c3cc2c1)c1c7c6c5c41,5.5973819
7767,FICCOM,C43 H52 N2 O2,CC(C)(C)c1cc(C2=CC=C(N2)C(c2ccccc2)=C2C=CC(=N2)c2cc(cc(c2O)C(C)(C)C)C(C)(C)C)c(O)c(c1)C(C)(C)C,4.52171585
7768,FICJAF,C26 H22 Cl1 F3 N6 O2,CN1N=C(C=C1C(=O)NC1CCN(CC1c1ccccc1)C(=O)c1cc(Cl)c2nccnc2c1)C(F)(F)F,6.08500993
7769,FICLAG,C15 H13 N1 O4,COc1ccccc1NC(=O)c1ccccc1C(O)=O,6.19004587
7770,FICLIP,C23 H18 N4 O2,CN1C(=C)C(=O)NC(=CC2=C(Nc3ccccc23)C2=CNc3ccccc23)C1=O,5.6801045100000005
7771,FICMAH,C18 H12 N2 O3 S1,COc1ccc(cc1)C=C1SC2=NC(=O)c3ccccc3N2C1=O,5.65751907
7772,FICMEL,C15 H8 N2 O2 S2,O=C1N=C2SC(=CC3=CC=CS3)C(=O)N2c2ccccc12,5.47493068
7773,FICMOV,C17 H9 Cl1 N2 O2 S1,Clc1ccc(cc1)C=C1SC2=NC(=O)c3ccccc3N2C1=O,5.71221395
7774,FICNIQ,C17 H10 N2 O2 S1,O=C1N=C2SC(=Cc3ccccc3)C(=O)N2c2ccccc12,5.87357746
7775,FICNOV,C26 H23 N3 O6 S1,COC(=O)C1(CN1N1C(=O)c2ccccc2C1=O)C(NS(=O)(=O)c1ccc(C)cc1)c1ccccc1,6.21344766
7776,FICNUD,C23 H9 F5 O1,Fc1c(F)c(F)c(c(F)c1F)C(=O)c1ccc2ccc3cccc4ccc1c2c34,5.2806413800000005
7777,FICPOZ,C26 H26 N2 O4,COC(=O)CC1C2C(N(C)c3cccc(C=CC(=O)OC)c23)C2=CN(C)c3cccc1c23,5.83711421
7778,FICTOC,C21 H12 N2 O3,O=C1N(CC#C)c2ccc3C(=O)c4ccccc4C(=O)c3c2N1CC#C,5.44118855
7779,FICTUH,C21 H13 F1 O1,Fc1ccc(cc1)C=C1c2ccccc2C(=O)c2ccccc12,5.84963145
7780,FICVAQ,C27 H20 N4 O4,C=CCN1C(=O)N(CC2CC(=NO2)c2ccncc2)c2ccc3C(=O)c4ccccc4C(=O)c3c12,5.47737969
7781,FICWOG,C20 H14 N2 O2,C1CN2COc3ccc4ccc5ccc6OCN1c1c2c3c4c5c61,5.36363611
7782,FICWUL,C17 H14 F2 O3,COc1ccc(cc1OC)C(=O)C=Cc1ccc(F)c(F)c1,6.0006546300000005
7783,FICWUM,C20 H16 N2 O2,CN1CCN2COc3ccc4ccc5ccc(O)c6c1c2c3c4c56,5.3497582999999995
7784,FICXAR,C21 H18 N2 O5,COc1cc(cc(OC)c1OC)C1=C(C(=O)NC1=O)C1=CNc2ccccc12,5.17751023
7785,FICXAT,C32 H22 N2 O2,C1CN2C(Oc3ccc4ccc5ccc6OC(N1c1c2c3c4c5c61)c1ccccc1)c1ccccc1,5.22649073
7786,FICXEX,C24 H20 N2 O2,C1CCC2C(C1)N1COc3ccc4ccc5ccc6OCN2c2c1c3c4c5c62,5.27873659
7787,FICXIB,C18 H12 N2 O2,O=C1C=Cc2ccc3C=CC(=O)c4c5NCCNc5c1c2c34,4.50130732
7788,FICYUN,C28 H24 N4 O2 S2,Cc1ccc(cc1)S(=O)(=O)NCCCN1c2nc3ccccc3cc2Sc2cc3ccccc3nc12,5.612348160000001
7789,FICZID,C23 H13 Br1 O1,Brc1ccccc1C(=O)c1ccc2ccc3cccc4ccc1c2c34,5.315199840000002
7790,FICZOJ,C23 H13 I1 O1,Ic1ccccc1C(=O)c1ccc2ccc3cccc4ccc1c2c34,5.28445097
7791,FICZUP,C23 H13 Br1 O1,Brc1ccc(cc1)C(=O)c1ccc2ccc3cccc4ccc1c2c34,5.46350189
7792,FIDBAY,C29 H18 O1,O=C(c1ccc(cc1)c1ccccc1)c1ccc2ccc3cccc4ccc1c2c34,5.44336546
7793,FIDBIE,C22 H15 Cl1 N2 O4 S1,CCOC(=O)C1=C(N=C(NC2=C(Cl)C(=O)c3ccccc3C2=O)S1)c1ccccc1,4.90675695
7794,FIDCEA,C16 H12 O2,O=C1C2=CC=CC=C(C2)C(=O)C2=CC=CC=C1C2,6.310592300000001
7795,FIDCUT,C23 H22 N2 O3 S1,Cc1ccc(cc1)S(=O)(=O)N=C1CCN(Cc2ccccc2)c2cccc(O)c12,5.8202431500000005
7797,FIDFAA,C23 H25 N1 O1,CC(C)c1cccc(C(C)C)c1N=Cc1c(O)ccc2ccccc12,5.986232599999999
7798,FIDLEL,C17 H7 B1 Cl2 F8 N2,FC(F)(F)c1cc(cc(c1)C(F)(F)F)C1=C2C=CC(=[N+]2[B-](F)(F)N2C(=CC=C12)Cl)Cl,4.59219334
7799,FIDMOV,C46 H26 Cl6,Clc1ccc(cc1)C(c1ccc(Cl)cc1)=C(C#C)C(C(C#C)=C(c1ccc(Cl)cc1)c1ccc(Cl)cc1)=C(c1ccc(Cl)cc1)c1ccc(Cl)cc1,5.57506857
7800,FIDPEN,C23 H22 Cl1 N3 O1,CN(C1=Cc2c(O1)nc1ccc(Cl)cc1c2N1CCCCC1)c1ccccc1,5.75330314
7802,FIDTOB,C26 H27 N5 O4,CCOC(=O)C(C=C(C(=O)OCC)c1cc(nnc1c1ccccn1)c1ccccn1)=C(C)NC,5.61724621
7803,FIDVEU,C19 H18 N2 O2 S1,Cc1ccc(cc1)S(=O)(=O)[N-]c1ccc[n+](Cc2ccccc2)c1,5.69289387
7804,FIDVIZ,C30 H29 N1 O10,COc1cc(O)c2c(O)c3C(=O)C4(O)C(=O)C(=C(O)CC4(O)C(=O)c3c3CC4(C(=CCCC4(C)C)C)c1c23)C(N)=O,5.605273199999999
7805,FIDXAR,C30 H22 N6 O4,N#CC1=C2NC(=CC=C2)C2(OCCO2)c2cccc(n2)C(=C2NC(=CC=C2)C2(OCCO2)c2cccc1n2)C#N,5.03873217
7806,FIDZUP01,C47 H44 N4 O2,CCN(CC)c1ccc2c(Oc3cc(ccc3C32N(CCN=Cc2ccc4ccc5cccc6ccc2c4c56)C(=O)c2ccccc32)N(CC)CC)c1,5.30295472
7807,FIFBAY,C25 H32 O6,COc1cc2c(OC3=C2C(=O)C(=C(OC)C3=O)CC(C)(C)C)c(CC(C)(C)C)c1OC,5.00499005
7808,FIFBOM,C24 H10,c1ccc(cc1)C#CC#CC#CC#CC#CC#Cc1ccccc1,5.31710464
7809,FIFBUS,C32 H26,CC(C)(C)c1ccc(cc1)C#CC#CC#CC#CC#CC#Cc1ccc(cc1)C(C)(C)C,5.3802350500000005
7810,FIFCIJ,C23 H19 N3 S2,S=C(NC1=C(NCc2ccccc2)SC(=N1)c1ccccc1)c1ccccc1,5.6703084100000005
7811,FIFGUY01,C16 H8 N4 S5,S1C=CN=C1C1=C(C2=NC=CS2)C(=C(S1)C1=NC=CS1)C1=NC=CS1,5.8390189999999995
7812,FIFHAF,C20 H16 N4 S5,CC1=CN=C(S1)C1=C(C2=NC=C(C)S2)C(=C(S1)C1=NC=C(C)S1)C1=NC=C(C)S1,5.65561426
7813,FIFHEJ,C18 H10 N2 S5,S1C=CC=C1C1=C(SC(=C1C1=CC=CS1)C1=NC=CS1)C1=NC=CS1,5.795752899999998
7814,FIFHIN,C18 H10 N2 S5,S1C=CC=C1C1=C(C2=NC=CS2)C(=C(S1)C1=CC=CS1)C1=NC=CS1,5.821059490000001
7815,FIFNEN,C12 H12 S8,C1CSC2=C(SC1)SC(S2)=C1SC2=C(SCCCS2)S1,5.83983534
7816,FIFSIY,C12 H6 S3,S1C=C2SC3=CSC4=C3C2=C1C=CC=C4,4.61423456
7817,FIFTIX,C15 H25 N5 S1,CCCCCCCCCN1C=NC2=C1C(=NC(=S)N2)NC,5.71357452
7818,FIGFUZ,C13 H13 N3 O2 S2,CN(C)c1ccc2N=C(Sc2c1)C1=NC(CS1)C(O)=O,5.77724916
7819,FIGGAG,C12 H13 N3 S2,CN(C)c1ccc2N=C(Sc2c1)C1=NCCS1,5.8493593299999995
7820,FIGJOW01,C17 H12 B1 F2 N1 O1,F[B-]1(F)OC(=Cc2ccc3ccccc3[n+]12)c1ccccc1,5.56500035
7821,FIGQAP,C23 H17 I1 O3,COc1cc2c3ccccc3C(=O)C(=C(c3ccccc3)c2cc1OC)I,5.99820561
7822,FIGREV,C42 H28 O8,O=C1C=C2CC3=CC(=O)C(=CC3=O)Cc3ccc(CC4=CC(=O)C(=CC4=O)CC4=CC(=O)C(=CC4=O)Cc4ccc(CC1=CC2=O)cc4)cc3,5.735071520000001
7823,FIGSAS,C44 H23 N1,CC(C)(C)c1cc2c3cccc4c5cc6ccc7ccc8cc9c%10cccc%11c(c1)c2N1C(=C2c5c5c6c7c8c5c9C2=C1c%10%11)c34,4.50021886
7824,FIGSUJ,C29 H20 O1,O=C1c2ccccc2C2=C(CC(c3ccccc3)c3cccc1c23)c1ccccc1,5.72092159
7825,FIGXIC,C28 H29 N1 O3,CCCCCCCCOc1ccc(cc1)c1ccc(OC(=O)c2ccc(cc2)C#N)cc1,5.66785939
7826,FIHDEH,C27 H27 N2 O2 P1,Cc1cc(C)c(N2C(=O)C(=O)N(C2=Pc2ccccc2)c2c(C)cc(C)cc2C)c(C)c1,5.92718389
7827,FIHQIY,C42 H44 N2,CCCCCCN1c2ccccc2c2c1c(c1ccccc1)c1c3ccccc3N(CCCCCC)c1c2c1ccccc1,5.65670272
7828,FIHSAR,C19 H15 N5 O4 S1,COc1ccc(cc1)[N+]1=NOC(=C1C=NN=C1SCC(=O)N1c1ccccc1)[O-],5.667587279999999
7829,FIHSEV,C23 H21 N5 O4 S1,CCOC(=O)C1=C(C)N(C(S1)=NN=CC1=C([O-])ON=[N+]1c1ccc(C)cc1)c1ccccc1,5.2398242999999995
7830,FIHSIZ,C25 H19 N5 O3 S1,COc1ccc(cc1)[N+]1=NOC(=C1C=NN=C1SC=C(N1c1ccccc1)c1ccccc1)[O-],5.20581008
7831,FIHTIA,C9 H6 Cl1 N3 O3,ON=C(Cl)C1=C([O-])ON=[N+]1c1ccccc1,6.16800465
7832,FIHTUM,C15 H11 N5 O2 S1,Cc1ccc(cc1)[N+]1=NOC(=C1C1=NNC(=N1)C1=CC=CS1)[O-],6.13235774
7833,FIHZOO,C24 H17 N3 S2,CCN1c2ccccc2Sc2cc(ccc12)C=C(C#N)C1=Nc2ccccc2S1,4.75437319
7834,FIHZUU,C22 H16 N2 O1 S2,CCN1c2ccccc2Sc2cc(ccc12)C=C(C#N)C(=O)C1=CC=CS1,4.596002939999998
7835,FIJBAE,C21 H16 N2 S2,CCN1c2ccccc2Sc2cc(ccc12)C=C(C#N)C1=CC=CS1,5.0136977
7836,FIJBUY,C24 H23 N1 O4,COC(=O)CC(C(CC(=O)c1ccc[n+]([O-])c1)c1ccccc1)c1ccccc1,6.16473929
7837,FIJHIP,C14 H12 O4,COC(=O)C1=COC(=O)C2=C1C=CC2=CC=CC,5.36798993
7838,FIJJUD,C17 H11 N3 O4 S2,O=C1N(C(=O)c2ccccc12)c1ccc(cc1)S(=O)(=O)N=C1NC=CS1,6.1179357
7839,FIJKEO,C36 H36 O8,COC1=CC(=C(C(=O)C2C(C(C2c2ccccc2)C(=O)C2=C(O)C=C(OC)C(C)(C)C2=O)c2ccccc2)C(=O)C1(C)C)O,6.33644312
7840,FIJNIX,C30 H21 N1 O1,Cc1ccc2Nc3c(C(=O)c4ccccc4)c4ccccc4c(c4ccccc4)c3c2c1,5.40826278
7841,FIJRAT,C33 H44 F4 N2 O1,CC(C)CCCC(C)C1CCC2C3CC(=O)C4=CC(CCC4(C)C3CCC12C)=NNc1c(F)c(F)cc(F)c1F,5.961470240000001
7842,FIJRUO,C18 H13 Cl2 N1 O2,Cc1ccc(cc1)C1=CC(=CNc2cc(Cl)cc(Cl)c2)C(=O)O1,5.257783819999999
7843,FIJTOK,C15 H11 N3 S1,S1C=C(N=C1N=Nc1ccccc1)c1ccccc1,5.4322088
7844,FIJWIE,C21 H14 N2 O2,CN1C=C(C2=CNc3ccccc23)C2=C1C(=O)c1ccccc1C2=O,4.784033600000001
7845,FIKMET,C23 H18 N4 O3 S1,CCOC(=O)C1=C(C)N=C2Sc3cc(C#N)c(cc3N2C1c1ccc(OC)cc1)C#N,5.85344104
7846,FIKRIA10,C28 H18 Br2 N4,Brc1ccc(cc1)N1N=Cc2ccccc2C1=C1N(N=Cc2ccccc12)c1ccc(Br)cc1,5.462957660000001
7847,FIKWUU,C42 H24,c1ccc(cc1)C1=C2C(=C3c4ccccc4c4cccc5c6cccc(c7ccccc17)c6c2c3c45)c1ccccc1,4.4509662500000005
7848,FIKXOP,C33 H21 F3 O1,FC(F)(F)c1ccccc1C1=CC(=C(c2ccccc2)C21C(=O)C=Cc1ccccc21)c1ccccc1,5.71874468
7850,FIKZUV,C11 H7 Br1 O1 S2,BrC1=CC=C(S1)C=CC1=CC=C(S1)C=O,5.4577875
7851,FILGOW,C27 H30 O2,CC1(C)C2CCC1(C)C(C2)OC(=O)CCc1c2ccccc2cc2ccccc12,5.45533848
7852,FILHAM,C28 H22 N4 O3 S3,COc1ccc(cc1)C(=O)C1C(c2ccc(SC)cc2)C2(SC3=NC=NN3C2=O)C2Sc3ccccc3N12,5.85398527
7853,FILMOF,C32 H20 F2 O1,Fc1ccc(cc1)C1=C(c2ccc(F)cc2)C2(C(=O)C=Cc3ccccc23)C(=C1)c1ccccc1,5.61234817
7854,FILMUK,C53 H32 O2,O=C1C2(C3C4OC(C3C1(c1ccccc1)C(=C2c1ccccc1)c1ccccc1)c1c2ccc3ccc5ccc6ccc(c41)c1c6c5c3c21)c1ccccc1,5.94976935
7855,FILNAS,C35 H27 F5 N2 O8,Oc1c(NC(=O)c2c(F)c(F)c(F)c(F)c2F)ccc2C(=O)c3ccccc3C(=Nc3ccc4OCCOCCOCCOCCOc4c3)c12,4.85968126
7856,FILPAT,C24 H14 S6,C1CSC2=C(S1)SC(S2)=C1Sc2cc3ccc4ccc5ccccc5c4c3cc2S1,4.8664841
7857,FILPIB,C19 H10 S3,S=C1Sc2cc3ccc4ccc5ccccc5c4c3cc2S1,5.7622829
7858,FILWOM,C18 H16 N4 O2,CN(C)c1ccc(C#N)c2c1OC(=O)C12C(=CC=C1N(C)C)C#N,6.0090901599999995
7859,FILWUV,C28 H12 Br4 N2,Brc1ccc2c3ccc(Br)cc3c3nc4c5cc(Br)ccc5c5ccc(Br)cc5c4nc3c2c1,5.62350483
7860,FILXAC,C34 H14 Br4 N4,Brc1ccc2c(c1)c1cc(Br)ccc1c1nc3cc4nc5c6ccc(Br)cc6c6cc(Br)ccc6c5nc4cc3nc21,4.573145370000001
7861,FILXAZ,C29 H34 Cl1 N5,CC1=C(C)C(=CC2=C(C)C(=C(N2)C=C2NC(=CC3=NC(C)(C#N)C(C)(C)C3)C(=C2C)C)C)N=C1Cl,3.90673855
7862,FILYUX,C12 H10 F1 N3 O1,Fc1ccc(NN=[N+]([O-])c2ccccc2)cc1,5.84935933
7863,FILZAE,C12 H10 Cl1 N3 O1,Clc1ccc(NN=[N+]([O-])c2ccccc2)cc1,5.825685419999999
7864,FILZEI,C12 H10 Br1 N3 O1,Brc1ccc(NN=[N+]([O-])c2ccccc2)cc1,5.901877300000001
7865,FILZIM,C12 H10 I1 N3 O1,Ic1ccc(NN=[N+]([O-])c2ccccc2)cc1,5.87847552
7866,FIMBAG,C41 H29 Cl1 N4 O3 S1,COc1ccc(cc1)N1C(C2C3CSC(N3C3(C(=O)c4cccc5cccc3c45)C2(C#N)C#N)c2ccccc2Cl)C(C1=O)c1ccccc1,5.562551340000001
7867,FIMBEL,C12 H11 N3 O1,[O-][N+](=NNc1ccccc1)c1ccccc1,5.917932019999999
7868,FIMFOZ,C50 H35 N3 O2,CC=CCC=CN1C(=O)c2cc(c3ccc(cc3)N3c4ccccc4c4ccccc34)c(cc2C1=O)c1ccc(cc1)N1c2ccccc2c2ccccc12,5.29560764
7869,FIMGUG,C13 H8 N2 O4,COC(=O)C(C#N)=C1C(=O)C(=C1[n+]1ccccc1)[O-],4.61287399
7870,FIMHEO,C12 H16 N4 S1,CN(C)c1ccc(cc1)N=C1N(C)C(=S)N1C,6.27086368
7871,FIMJAP,C24 H17 Cl1 N4 O1 S1,CC(C)C1=Cc2c(S1)nc1N=C(Nc1c2c1ccccc1Cl)c1ccc(cc1O)C#N,5.60091938
7872,FIMLOE,C25 H32 N4 O4 S1,CCCCCC(=O)OCOC(=O)N1c2ccccc2N=C2SC(=CC2=C1N1CCN(C)CC1)C,5.43003189
7873,FIMLUK,C35 H52 N4 O4 S1,CCCCCCCCCCCCCCCC(=O)OCOC(=O)N1c2ccccc2N=C2SC(=CC2=C1N1CCN(C)CC1)C,5.37207164
7874,FIMMAR,C23 H28 N4 O4 S1,CCCC(=O)OCOC(=O)N1c2ccccc2N=C2SC(=CC2=C1N1CCN(C)CC1)C,5.402276280000001
7875,FIMNAQ02,C17 H10 O2 S5,O=C(SC1=C(SC(=S)S1)SC(=O)c1ccccc1)c1ccccc1,5.71847257
7876,FIMNUN,C25 H16 N2,c1ccc2c(c1)cc(N1c3ccccc3c3ccccc13)c1cccnc21,5.95521161
7877,FIMPOG,C23 H28 N2 O2,CCN(CC)CCCN1C(=CC(C=C1C)=C1C(=O)c2ccccc2C1=O)C,5.51819677
7878,FIMPUP,C20 H15 N3,Nc1ccccc1c1nc2ccccc2c(n1)c1ccccc1,5.25370211
7879,FIMREZ,C32 H26 N2 O8,COc1cc(NC(=O)c2cc(C(=O)Nc3cc(OC)cc(OC)c3)c3C(=O)c4ccccc4C(=O)c3c2)cc(OC)c1,4.91328768
7880,FIMRUP,C16 H11 N5,CN(C)c1ccc(cc1)C(C=C(C#N)C#N)=C(C#N)C#N,4.2803508699999995
7881,FIMSEA,C24 H20 N6,CN(C)c1ccc(cc1)C(=C(C#N)C#N)C(c1ccc(cc1)N(C)C)=C(C#N)C#N,4.72063108
7882,FIMSIE,C14 H11 N3,CN(C)c1ccc(cc1)C#CC=C(C#N)C#N,4.9404990699999995
7883,FIMTEB,C42 H38 N2 O4,COc1ccc(cc1)N(c1ccc(OC)cc1)c1ccc(C=Cc2ccc(cc2)N(c2ccc(OC)cc2)c2ccc(OC)cc2)cc1,5.38758213
7884,FIMVUV,C42 H30,C1C=C2c3cc4C=C5C(=CCC5(c5ccccc5)c5ccccc5)c4cc3C=C2C1(c1ccccc1)c1ccccc1,5.27383854
7885,FIMWOO,C16 H10 O2 S2,O1C=CC=C1C1=CC=C(S1)C1=CC=C(O1)C1=CC=CS1,5.14676137
7886,FIMYIM,C44 H41 N3 S1,CCCCc1ccc(cc1)C1=CC=C(c2ccc(CCCC)cc2c2ccc(cc2)N(c2ccccc2)c2ccccc2)C2=NSN=C12,4.91845785
7888,FIMYUY,C44 H39 N3 S1,CCCCc1ccc(cc1)C1=CC=C(c2ccc(CCCC)cc2c2ccc(cc2)N2c3ccccc3c3ccccc23)C2=NSN=C12,5.14267966
7889,FIMZAF,C44 H39 N3 O1 S1,CCCCc1ccc(cc1)C1=CC=C(c2ccc(CCCC)cc2c2ccc(cc2)N2c3ccccc3Oc3ccccc23)C2=NSN=C12,4.4509662599999995
7890,FINBUB01,C19 H11 N3 S4,S1C=CSC1=C1SC=C(S1)C=Nc1cc2cccnc2c2ncccc12,4.47627284
7891,FINFAM,C23 H22 Br1 N1 O4,COc1ccc(cc1)C(=O)C(O)(CNc1ccc(Br)cc1)c1ccc(OC)cc1,5.71439086
7892,FINJUK,C30 H18 N2,c1ccc2c(c1)N(c1ccc3N4c5ccccc5c5cccc(c3c1)c45)c1ccccc21,5.80446055
7893,FINKIZ,C16 H10 N2 O2 S2,Oc1ccccc1C1=NC2=C(S1)N=C(S2)c1ccccc1O,5.548129289999999
7894,FINKUK,C19 H12 N2 O1,O=C1N2Cc3ccccc3N=C2c2cccc3cccc1c23,5.18594577
7895,FINLAQ,C14 H20 N2 S2,CC(C)(C)c1cc2SN=S=Nc2c(c1)C(C)(C)C,4.7995440899999995
7896,FINLEU,C15 H9 N1 O3 S3,O=S(=O)(c1ccccc1)C1=C2Oc3ccccc3N=C2SS1,5.202816820000001
7897,FINQAX,C24 H16 F10,Cc1ccc2ccc(C)c3c4c(C)c(c(c(C)c4c1c23)C(F)(F)C(F)(F)F)C(F)(F)C(F)(F)F,5.706771669999999
7898,FINREC,C13 H19 Br1 N2 O2,CN(C)CCN(C)Cc1cc(Br)cc(C=O)c1O,6.28474149
7899,FINROM,C13 H19 Cl1 N2 O2,CN(C)CCN(C)Cc1cc(Cl)cc(C=O)c1O,6.541072740000001
7900,FINSAZ,C15 H23 Br1 N2 O2,CCN(CC)CCN(C)Cc1cc(Br)cc(C=O)c1O,5.758201189999999
7901,FINSIH,C15 H23 Cl1 N2 O2,CCN(CC)CCN(C)Cc1cc(Cl)cc(C=O)c1O,5.76582037
7902,FINYAC,C23 H23 N3 O1,CN1c2cc(C)c(C)cc2C(C)(C)C21Oc1ccc3ncccc3c1N=C2,5.90323787
7903,FINZAE,C22 H14 S2,S1C=CC=C1c1ccc2cc3cc(ccc3cc2c1)C1=CC=CS1,4.73913482
7904,FINZEI,C34 H38 S2,CCCCCCC1=CC=C(S1)c1ccc2cc3cc(ccc3cc2c1)C1=CC=C(CCCCCC)S1,4.9214511000000005
7905,FIPBIR,C14 H7 N1 O2 S2,O=C1OC2=C(SC(=N2)C2=CC=CS2)c2ccccc12,5.78024242
7908,FIPFIT,C5 H4 S5,S=C1SC2=C(SCCS2)S1,5.9843278
7909,FIPHOC,C18 H17 N1 O2,OC1=C(N(c2ccccc2)c2ccccc2)C(=O)CCC1,6.331000850000001
7910,FIPLOF,C20 H12 N4,N#Cc1c2CCc3ccc(CCc(c1C#N)c(C#N)c2C#N)cc3,5.6616007800000006
7911,FIPLUL,C22 H16 N4 O2,COc1cc2CCc3c(C#N)c(C#N)c(CCc1cc2OC)c(C#N)c3C#N,4.64471131
7912,FIPMAS,C24 H20 N4 O4,COc1c2CCc3c(C#N)c(C#N)c(CCc(c1OC)c(OC)c2OC)c(C#N)c3C#N,5.781602980000001
7913,FIPMEW,C24 H20 N4 O2,COc1cc2CCCc3c(C#N)c(C#N)c(CCCc1cc2OC)c(C#N)c3C#N,4.59110489
7914,FIPMIA,C22 H22 N2 O2,COc1cc2CCCc3cc(C#N)c(CCCc1cc2OC)cc3C#N,5.45615482
7915,FIPMOG,C20 H12 N4 S2,N#Cc1c2CSCc3ccc(CSCc(c1C#N)c(C#N)c2C#N)cc3,5.449079859999999
7916,FIPPIF,C19 H23 N1 O4 S2,CCOC(=O)C1=CC(=C(SCC)SCC)C(O)(N1C=O)c1ccccc1,5.46540668
7917,FIPQON,C15 H14 O3,O=C1C2OCC(CC1=CC=Cc1ccccc1)O2,5.75167045
7918,FIPRAZ,C38 H29 N1 O2,CCCCCCCCN1C(=O)c2c(C1=O)c1c3ccccc3c3ccc4ccc5c6ccccc6c2c2c5c4c3c12,5.31710464
7919,FIPRIF,C16 H9 Cl2 N5 O1,Clc1ccc(c(Cl)c1)C(=O)C1=NN(c2ccccc2)C2=NN=CN12,5.743779160000001
7920,FIPTUV,C17 H11 Cl1 O2 S1,CC1=C(Sc2cccc(Cl)c2)C(=O)c2ccccc2C1=O,5.222136900000001
7921,FIPVAD,C17 H11 Cl1 O2 S1,CC1=C(Sc2ccccc2Cl)C(=O)c2ccccc2C1=O,5.46459034
7922,FIPXEH,C17 H14 O3,OC(=CC(=O)C=C(O)c1ccccc1)c1ccccc1,6.11249342
7923,FIPXOR,C21 H17 N3 O2,CN(C)C1=CC(=O)N2C(=O)C(=C(c3ccccc3)C2=N1)c1ccccc1,5.04662347
7925,FIQBIR,C10 H9 N1 O3 S4,COC(=O)CNC(=O)C1=CSC(S1)=C1SC=CS1,5.27873659
7926,FIQBUD,C14 H14 N2 S8,CSC1=C(SC)SC(S1)=C1SC(=C(SCCC#N)S1)SCCC#N,5.82731811
7927,FIQFOD,C28 H22 O11,CCOC(=O)C1(CC2=CC(=O)c3cc(OC)ccc3O2)OC(=O)C(=O)C1=C1Oc2ccc(OC)cc2C(=C1)O,4.96526143
7928,FIQHIZ,C17 H16 O4,COc1ccc(cc1)C(O)=CC(=O)c1ccc(OC)cc1,6.06215236
7929,FIQJEX,C32 H22 N2,c1ccc(cc1)C(=[N+]1[N-]c2ccccc2C21c1ccccc1c1ccccc21)c1ccccc1,4.86430719
7930,FIQKOH,C22 H14 O1 S8,CSC1=C(SC)SC(S1)=C1SC2=C(S1)SC(S2)=C1c2ccccc2Oc2ccccc12,5.33751318
7931,FIQLUO,C34 H30 O12 S4,CCCOC(=O)C1=C(SC(S1)=C1C(=O)c2cc3C(=O)C(C(=O)c3cc2C1=O)=C1SC(=C(S1)C(=O)OCCC)C(=O)OCCC)C(=O)OCCC,5.2904374899999995
7932,FIQMAV,C14 H12 O6,COC1=CC(=O)c2c(O)c(C(C)=O)c(C)c(O)c2C1=O,5.70786013
7933,FIQMIE,C19 H22 N2 O3,Cc1ccc(O)c(C=NCC(O)C[NH+]=Cc2cc(C)ccc2[O-])c1,5.28907691
7934,FIQMOJ,C18 H12 F6 N4 O2,COC(=O)N1N=C(NN=C1c1ccc(cc1)C(F)(F)F)c1ccc(cc1)C(F)(F)F,6.31385768
7935,FIQNAW,C13 H10 Br2 S9,CCSC1=C(SCC)SC(S1)=C1SC(=S)C(S1)=C1SC(=C(Br)S1)Br,4.4381769
7936,FIQPIE,C12 H9 N5 S1,NC(=S)NN=C1c2cccnc2c2ncccc12,5.44690294
7937,FIQSAB,C15 H8 N2 O3,O=C1C=CC2=NOC=C2C1=C1Nc2ccccc2C1=O,4.6542353
7938,FIQSIK,C12 H10 S4,CSC1=Cc2cc3SC(=Cc3cc2S1)SC,5.582687760000001
7939,FIQSUW,C30 H22 O2,Cc1ccc2CCC(=O)c3cc4ccc5cc6C(=O)CCc7ccc(C)c(c67)c5c4c1c23,5.1826804
7940,FIQTAD,C30 H20,CC12C=Cc3cccc4cc5ccc6cc7cccc8C=CC1(C)c(c78)c6c5c2c34,5.162816090000001
7941,FIQYUZ,C24 H24 N2 O4 S2,CCSC1=NN2CC(CC(=C2S1)C(=O)c1ccc(OC)cc1)C(=O)c1ccc(OC)cc1,5.76092233
7942,FIRBUD,C20 H30 P2,CC1=C(C)C(C)(P=PC2(C)C(=C(C)C(=C2C)C)C)C(=C1C)C,5.516019870000001
7943,FIRKAV,C14 H16 N2 O4 S2,CC(=O)SCC1=C(C)C(=O)N2N1C(=C(C)C2=O)CSC(C)=O,6.0997040799999995
7944,FIRKEZ,C10 H12 N2 O2 S2,CC1=C(CS)N2N(C1=O)C(=O)C(=C2CS)C,5.978069189999999
7945,FIRKID,C10 H10 N2 O2 S2,CC1=C2CSSCC3=C(C)C(=O)N(N23)C1=O,5.9900421900000005
7946,FIRNAY,C44 H39 N3 O5,CCCCCCC(CCCCCC)N1C(=O)c2ccc3c4ccc5C(=O)OC(=O)c6ccc(c4c56)c4c5N=C(Nc5c(C1=O)c2c34)c1ccccc1,3.75816438
7947,FIRPUR,C35 H26 Br2 N4 O1,Brc1ccc(cc1)N1C(OC2(N=[N+]([N-]C12c1ccccc1)c1ccc(Br)cc1)c1ccccc1)C=Cc1ccccc1,5.49452287
7948,FIRQAB,C34 H17 N5 S2,N#CC(=CC1=CC=C(S1)c1ccc2N(c3ccccc3)c3ccc(cc3c2c1)C1=CC=C(S1)C=C(C#N)C#N)C#N,4.716549369999999
7949,FIRQIJ,C44 H26 N4 S1,N#CC(=CC1=CC=C(S1)c1ccc2N(c3ccccc3)c3ccc(cc3c2c1)c1ccc2N(c3ccccc3)c3ccccc3c2c1)C#N,4.25939811
7950,FIRXUC,C39 H24 N2,N#Cc1ccc(cc1)c1c2ccccc2c(c2ccc3N(c4ccccc4)c4ccccc4c3c2)c2ccccc12,5.35982651
7951,FIRYAJ,C39 H24 N2,N#Cc1ccc(cc1)c1c2ccccc2c(c2ccc(cc2)N2c3ccccc3c3ccccc23)c2ccccc12,5.36173131