,ID,formula,smiles,HOMO_LUMO_gap
7004,EWELEY,C28 H19 P1 S1,Cc1ccc2cccc3c2c1c1cccc2c4c(C)ccc5cccc(c45)P3(=S)c12,5.44227701
7005,EWELIC,C30 H19 P1 S1,S=P12c3ccc4CCc5ccc(c6cccc(c7ccc8CCc9ccc1c7c89)c26)c3c45,5.348669849999999
7006,EWELOI,C28 H19 O1 P1,Cc1ccc2cccc3c2c1c1cccc2c4c(C)ccc5cccc(c45)P3(=O)c12,5.748405089999999
7007,EWENIE,C42 H49 F2 O4 P1,CCCCP(CCCC)(CCCC)=C1C(=C(c2ccc(F)cc2)C2=C1C(O)(CC2c1ccc(C)cc1)C(=O)OC)C(=O)c1ccc(F)cc1,5.76010599
7008,EWEPAZ,C23 H23 N1 O1 S1,Cc1c2CCCN3CCCc(c(C)c1C=C1Sc4ccccc4C1=O)c23,4.97015948
7009,EWEPON,C19 H19 N1 O1 S1,CN(C)c1cc(C)cc(C)c1C=C1Sc2ccccc2C1=O,5.27193374
7010,EWEPUT,C19 H19 N1 O1 S1,CN(C)c1cc(C)c(C=C2Sc3ccccc3C2=O)c(C)c1,5.12580861
7011,EWESUU01,C14 H15 N3,CCN(CC)c1ccc(cc1)C=C(C#N)C#N,5.392480170000001
7012,EWEVOT,C22 H17 N3 O5,COC(=O)CC(N1C(=O)c2ccccc2C1=O)C(=O)Nc1cccc2cccnc12,6.15004513
7013,EWEWAG,C39 H30 N4 O3,Oc1ccccc1C=Nc1ccc(cc1)N(c1ccc(cc1)N=Cc1ccccc1O)c1ccc(cc1)N=Cc1ccccc1O,5.36880627
7014,EWEZIR,C18 H12 Br2,CC1=C2c3ccc(Br)cc3C(=C2c2ccc(Br)cc12)C,5.127713399999999
7015,EWEZOX,C20 H16 Br2,CCC1=C2c3ccc(Br)cc3C(=C2c2ccc(Br)cc12)CC,5.13397202
7016,EWEZUD,C28 H16 Br2,Brc1ccc2c(c1)C(=C1c3ccc(Br)cc3C(=C21)c1ccccc1)c1ccccc1,4.60253367
7017,EWIBAP,C36 H32 Br2,CC(C)(C)c1ccc(cc1)C1=C2c3ccc(Br)cc3C(=C2c2ccc(Br)cc12)c1ccc(cc1)C(C)(C)C,4.91655305
7018,EWIBET,C34 H28 Br2,Cc1cc(C)c(c(C)c1)C1=C2c3ccc(Br)cc3C(=C2c2ccc(Br)cc12)c1c(C)cc(C)cc1C,5.1108423400000005
7019,EWIBIX,C50 H38,Cc1cc(C)c(c(C)c1)C1=C2c3ccc(cc3C(=C2c2ccc(cc12)C#Cc1ccccc1)c1c(C)cc(C)cc1C)C#Cc1ccccc1,4.699678310000001
7020,EWICES,C42 H36 O6,COc1c(C)c(C)c(OC)c2C#CC#Cc3c(OC)c(C)c(C)c(OC)c3C#CC#Cc3c(OC)c(C)c(C)c(OC)c3C#CC#Cc12,5.613708730000001
7021,EWIDOD,C35 H32 O7,O=C1c2cc3OCCOCCOc4ccc(cc4)C=Cc4ccc(OCCOCCOc5ccc(c1c5)c2cc3)cc4,5.30594797
7022,EWIDUJ,C39 H40 O9,O=C1c2cc3OCCOCCOCCOc4ccc(cc4)C=Cc4ccc(OCCOCCOCCOc5ccc(c1c5)c2cc3)cc4,5.0493446099999995
7023,EWIFAR,C25 H22 O4,CC(C)(C1C=CCC2=C1C(=O)c1ccccc1C2=O)C(=O)OCc1ccccc1,6.01616512
7024,EWIGUO,C8 H3 Cl2 N1 O2,Clc1cc(Cl)c2NC(=O)C(=O)c2c1,5.973443239999999
7025,EWIHEX,C18 H14 N2 O4,COC(=O)C=C(C(=O)OC)C(C=Cc1ccccc1)=C(C#N)C#N,5.72881289
7026,EWIJEA,C20 H18 N2 O4,CN(C)c1c(O)c(C(N)=O)c2OC(Oc3cccc1c23)c1ccccc1,6.24610133
7027,EWIJIE,C20 H20 N2 O4,CN(C)C1C2CC=CC(=C2C(=O)C2=C1ON=C2OCc1ccccc1)O,6.40419947
7028,EWIJOJ,C10 H10 N2 O3,CCOC(=O)C1=CNc2cnccc2O1,6.21671303
7029,EWILUT,C37 H23 N1,C1C(=Nc2c3ccc4cccc5ccc(cc2C21c1ccccc1c1ccccc21)c3c45)c1ccccc1,5.08363096
7030,EWIREJ,C19 H14 O6,COC12Oc3ccc(O)cc3C1(O)C(=O)C=C(C2=O)c1ccccc1,6.22025051
7031,EWIXIT02,C12 H7 N5 O1,Oc1ccc2ccc3N4N=CN=C4N=Nc3c2c1,5.86976787
7032,EWIXOZ02,C11 H8 N6 O1,O=C1C=Cc2ccccc2C1=NNC1=NN=NN1,5.327172850000001
7033,EWOFIG,C7 H2 I4 N2,Ic1c(I)c(I)c2N=CNc2c1I,6.25372052
7034,EWOWUK,C24 H16 N2,c1ccc(nc1)c1cc(ccn1)c1c2ccccc2cc2ccccc12,5.49533921
7035,EWOXIX,C31 H24 N2 O4 S2,O=S(=O)(N=C1C=CC(=NS(=O)(=O)c2ccccc2)C2C1C2(c1ccccc1)c1ccccc1)c1ccccc1,5.54159856
7036,EWOXOF,C26 H16 N2,c1ccc(nc1)c1cc(ccn1)c1ccc2ccc3cccc4ccc1c2c34,5.5815993
7037,EWUBAZ,C23 H18 Br2 O5,CCOC(=O)C1=C(c2ccc(Br)cc2)C(=C(C(=O)OCC)C1=O)c1ccc(Br)cc1,5.50459109
7039,EWUVAU,C20 H21 N1 O2,CCCCCCc1ccc(cc1)c1ccc2NC(=O)C(=O)c2c1,5.74432339
7040,EWUVOJ,C26 H18 N2 O2 S1,COc1ccc(cc1)N1c2ccccc2Sc2cc(ccc12)C1=Nc2ccccc2O1,5.77561648
7041,EWUVUP,C20 H14 N2 O1 S1,CN1c2ccccc2Sc2cc(ccc12)C1=Nc2ccccc2O1,5.782963550000001
7042,EWUYUR,C9 H9 N3 S2,CSC(=S)N1C(=Nc2ccccc12)N,5.61370874
7043,EWUZED,C9 H10 Cl1 N1 O2,[NH3+]C(Cc1ccc(Cl)cc1)C(=O)[O-],7.291290619999999
7044,EXABEM,C24 H20 Br1 N1 O3,Brc1ccc(cc1)C(=O)CC1Cc2ccccc2N1C(=O)OCc1ccccc1,6.0586148799999995
7045,EXAFUF,C17 H19 N1 O6,OCC1OC(O)C([NH+]=Cc2c([O-])ccc3ccccc23)C(O)C1O,5.67792761
7046,EXAHIU,C26 H14 F6 N6 O1,FC(F)(F)c1cccc(c1)N=C1N2CCCC3=C2N(C(=O)C(=C3C#N)C#N)C1=Nc1cccc(c1)C(F)(F)F,5.10784908
7047,EXAJUI,C25 H21 Cl1 N2,Clc1ccc(NC(C(C=C)c2ccccc2)c2ccc3ccccc3n2)cc1,5.80881436
7048,EXAKAR02,C26 H26 Br2 N4 O2,Brc1ccc2c(n1)N(CCCCC=C)C(=O)C2=C1C(=O)N(CCCCC=C)c2nc(Br)ccc12,4.95410476
7049,EXAKIY,C18 H14 O3,Cc1cc2CC3(Cc2cc1O)C(=O)c1ccccc1C3=O,6.06813887
7050,EXAMUN,C49 H35 N3,Cc1ccc2N(c3ccc(cc3)c3nc(cc(n3)c3ccccc3)c3ccccc3)c3ccc(C)cc3C3(c4ccccc4c4ccccc34)c2c1,5.01206501
7051,EXEWIN,C23 H13 F5 O2,CC(=O)OC(c1c(F)c(F)c(F)c(F)c1F)c1c2ccccc2cc2ccccc12,5.3832283
7053,EXEZUC,C16 H18 N2 O2,CCCOc1ccc(N=Nc2ccc(C)cc2)c(O)c1,5.76473192
7055,EXIHEZ,C20 H13 Br1 N2 O1,Brc1ccc(cc1)C1=C(C#N)C(=O)NC2=C1CCc1ccccc21,5.58649735
7056,EXIHID,C21 H16 N2 O2,COc1ccc(cc1)C1=C(C#N)C(=O)NC2=C1CCc1ccccc21,5.536972629999999
7057,EXIHOJ,C21 H14 N2 O3,O=C1NC2=C(CCc3ccccc23)C(=C1C#N)c1ccc2OCOc2c1,5.6205115800000005
7058,EXIHUP,C18 H12 N2 O1 S1,O=C1NC2=C(CCc3ccccc23)C(=C1C#N)C1=CC=CS1,5.49724401
7059,EXIJAW,C18 H13 N3,N(c1cccc2cccnc12)c1cccc2cccnc12,5.503230510000001
7060,EXILIH01,C18 H19 N1 O4,COc1cc(C=CC(=O)c2ccccc2N)cc(OC)c1OC,5.72854078
7061,EXIMII,C21 H13 N1 O2,O=C1Oc2ccccc2C=C1N1c2ccccc2c2ccccc12,5.52962555
7062,EXINIJ,C17 H16 I2 N2 O2,Oc1c(I)cc(I)cc1C=Nc1ccc(cc1)N1CCOCC1,5.64472971
7063,EXINOP,C18 H20 N2 O3,COc1ccc(C=Nc2ccc(cc2)N2CCOCC2)c(O)c1,5.9568443
7065,EXIPIL,C18 H15 N1 O1,Cc1ccc(N=Cc2cccc3ccccc23)c(O)c1,5.75738484
7066,EXIQEJ,C21 H24 Br1 N1 O2,CC1(C)C2CCC1(C)C(O)C2[NH+]=Cc1c([O-])ccc2cc(Br)ccc12,5.61207606
7067,EXIQOT,C34 H25 N2 O1 P1 S2,CC1=C(N=C(S1)c1ccccc1)C1=C(C2=C(C)SC(=N2)c2ccccc2)P(=O)(c2ccccc2)c2ccccc12,5.77044631
7068,EXISAG,C5 H7 N3 O1,CC1=C(N=O)C(=NN1)C,6.650462499999999
7069,EXITOV,C25 H22 N4 O2 S1,CC1=NN(C(CC(=O)c2ccccc2)c2ccccc2)C(=S)N1N=Cc1ccccc1O,5.84799876
7070,EXITUB,C31 H26 N4 O2 S1,COc1ccc(cc1)C=NN1C(=S)N(N=C1c1ccccc1)C(CC(=O)c1ccccc1)c1ccccc1,5.74350705
7071,EXIVAJ,C23 H19 Cl2 N5 O1 S1,COc1ccc(cc1)C=NN1C(=S)NN=C1Cc1ccccc1Nc1c(Cl)cccc1Cl,6.08310513
7072,EXIYEP,C19 H17 N3,CN(N=C(c1ccccc1)c1ccccn1)c1ccccc1,5.731261920000001
7073,EXIYOA,C14 H12 Cl1 N3 O1 S1,Cc1cccnc1NC(=S)NC(=O)c1ccc(Cl)cc1,6.19766506
7074,EXIZIV,C15 H12 N2 O2,Cc1ccc(O)c(c1)N=C1C(=O)Nc2ccccc12,5.97888552
7075,EXMPME,C16 H22 N2 O3,CCOC(=O)C1=C(C)C(=C(N1)C=C1CCC(=N1)OCC)C,5.94650398
7076,EXOPUD,C10 H13 N3 O2 S1,CN(C)C(=S)NN=Cc1cccc(O)c1O,5.83929112
7077,EXOQAK,C12 H11 N3,Nc1ccc(cc1)N=Cc1ccccn1,5.79629713
7078,EXOXEV,C25 H36 N4 O1,CCN(CC)Cc1cc(cc(N2N=C3C=CC=CC3=N2)c1O)C(C)(C)CC(C)(C)C,6.16963733
7079,EXUBIJ,C15 H11 N1 O2,OC1=C(Nc2ccccc2C1=O)c1ccccc1,6.2912722300000015
7080,EXUFEI,C17 H14 N4 O1 S1,O=C(C(N1C=NC=N1)C(=S)Nc1ccccc1)c1ccccc1,6.2929049
7081,EXUGAF,C14 H14 N2 O1,Cc1cc(cc(C)c1O)N=Nc1ccccc1,6.21263132
7082,EXUGUZ,C12 H12 N6,CC(=NN=C(C)c1cnccn1)c1cnccn1,6.44447232
7084,EXUPIY,C17 H16 N2 O5,COc1ccc(C=[NH+]c2ccc(cc2)C(=O)NCC(O)=O)c([O-])c1,5.28009716
7085,EXUPOE,C16 H15 N1 O3,COc1cccc(C=Nc2ccc(cc2)C(C)=O)c1O,6.0787513099999995
7086,EXUQAQ,C23 H16 N2,N1c2cccc3cccc(NC41c1ccccc1c1ccccc41)c23,5.63983166
7087,EXUWEZ,C16 H14 O2,COc1ccc(OC)c2cc3ccccc3cc12,5.45506636
7088,EXUZUS,C11 H21 N1 O6 S1,CC1(C)OCC(OS(=O)(=O)[O-])C(C[NH+]2CCCC2)O1,5.86078811
7089,EXVPOS,C24 H25 O2 P1,CCOC(OCC)=C=P(c1ccccc1)(c1ccccc1)c1ccccc1,6.17181424
7090,EXZPUN11,C25 H32 N2 O3,CCOc1ccc(cc1)N=Nc1ccc(OC(=O)CCCCCCCCC=C)cc1,6.11467033
7091,EYADOX,C33 H32 N2 O4,CCCCOc1ccc(cc1)C(=O)Oc1ccc2ccc3OC4(C=Nc3c2c1)N(C)c1ccccc1C4(C)C,5.64309703
7092,EYADUD,C38 H22 N2 O6,O=C1N(C(=O)c2ccc3C(=O)N(C(=O)c4ccc1c2c34)c1ccc(Oc2ccccc2)cc1)c1ccc(Oc2ccccc2)cc1,5.14240755
7093,EYAFEQ,C28 H27 N3 O1,CC1CCC2(C)N(Cc3cccc(n3)c3ccccc3O)c3cccc4cccc(N12)c34,5.4871758
7094,EYAFIU,C28 H34 N2 O1,CC1CCC(C)N1c1cccc2cccc(N=Cc3cc(C)cc(c3O)C(C)(C)C)c12,5.61125971
7095,EYAFOZ,C16 H19 N3 O3,CCOC(=O)CC1=NN(C(=O)C1=CN(C)C)c1ccccc1,5.981878780000001
7096,EYAFUF,C19 H18 N4 O3,CCOC(=O)CC1=NN(C(=O)C1=CNc1ccccn1)c1ccccc1,5.66432191
7097,EYAGAM,C15 H14 N4 O3,COC(=O)CC1=NN(C(=O)C1=CNCC#N)c1ccccc1,6.0904522000000005
7098,EYAGEQ,C23 H18 N2 O5,CCOC(=O)CC1=NN(C(=O)C1=CC1=C(O)c2ccccc2C1=O)c1ccccc1,4.207968579999999
7099,EYAHER,C16 H17 N3 O1,CCC1=CC=C(N1)C=C1N=C(C=C1OC)C1=CC=CN1,4.7072975
7100,EYANRO10,C30 H18 O2,O=C1c2ccccc2C(=CC=C2c3ccccc3C(=O)c3ccccc23)c2ccccc12,4.82920451
7101,EYASAZ,C33 H35 N5 O5,CCOC(=O)c1ccccc1NN=C(CC)C(=Nc1ccccc1)C(=NNc1ccccc1C(=O)OCC)C(=O)C1CC1,5.84391705
7102,EYASIH,C30 H30 Br1 N1 O2,CC(C)(C)C1=CC2=C(O1)C1=C(CC=C2C(C)(C)C)N(C(=O)c2ccc(Br)cc2)c2ccccc12,5.78323566
7103,EYATOO,C27 H22 N2 O4,CCC1(O)C(=O)OCC2=C1C=C1N(C(c3ccc(C)cc3)c3cc4ccccc4nc13)C2=O,5.74568395
7104,EYAVEG,C19 H19 N3 O1,CC1(C)C(Nc2ccccc12)=C(C=O)C=NNc1ccccc1,5.70677167
7105,EYAVUW,C21 H19 N3 S2,CC1(C)c2ccccc2N=C1C1=CN(N=C1)C(=S)SCc1ccccc1,5.990858530000001
7106,EYAXAD,C35 H22 Br1 N1 O1,BrC1=NC2=C3C(=CC=CC2=C1c1ccccc1)C1(OC3(c2ccccc2)c2ccccc12)c1ccccc1,5.32907765
7107,EYAXEH,C16 H14 Br1 N1 O4 S1,CCOC(=O)C1=CC2=C(S1)C(=C1C=C(Br)C=CN21)C(=O)OCC,5.70541111
7108,EYEBIV,C25 H30 N2 O3 S1,CCCCCCC(=O)C1=C(NCCC1=NS(=O)(=O)c1ccc(C)cc1)c1ccccc1,6.144602859999999
7109,EYEHOH,C10 H13 N3 O2 S1,CNC(=S)NN=Cc1ccc(OC)c(O)c1,6.025961220000002
7110,EYEJIC,C16 H8 O2 S1,O=C1C2=C(C(=O)c3ccccc3S2)c2ccccc12,5.31737675
7111,EYEJID,C24 H23 N3 S1,CCN(CC)c1ccc(cc1)C=Nc1ccc(cc1)C1=Nc2ccccc2S1,5.32009789
7112,EYEKEY,C17 H18 N4 S1,S=C(NN=C(c1ccccc1)c1ccccn1)N1CCCC1,5.2613213
7113,EYESUY,C22 H25 N3 O2 S1,CC(C)c1cc(NC2=NC(=O)SC2=Cc2ccc(cc2)N(C)C)c(C)cc1O,5.24472235
7114,EYEZEP,C32 H24 O2,O=C1C=C(C(c2ccccc2)c2ccccc2)C(=CC1=O)C(c1ccccc1)c1ccccc1,5.79629713
7115,EYEZIT,C45 H34 O2,O=C1C(=O)C(=C(C=C1C(c1ccccc1)c1ccccc1)C(c1ccccc1)c1ccccc1)C(c1ccccc1)c1ccccc1,5.4000993600000005
7116,EYIBIZ,C42 H32 N6 O2,COc1cc(OC)c(cc1N1c2ccccc2N(c2cccnc2)c2ccccc12)N1c2ccccc2N(c2cccnc2)c2ccccc12,5.5707147500000005
7117,EYIBUK,C20 H22 O5,COC(=O)C1=CC=C(C)C2=C(C)C=C(OC)C=C(C)C2=C1C(=O)OC,5.90487056
7118,EYICAR,C20 H21 Br1 O5,COC(=O)C1=CC=C(C)C2=C(C)C(=C(OC)C=C(C)C2=C1C(=O)OC)Br,5.88527836
7119,EYICEV,C19 H20 O5,COC(=O)C1=CC=C(C)C2=C(C)CC(=O)C=C(C)C2=C1C(=O)OC,6.09562236
7120,EYICOF,C22 H24 O7,COC(=O)C1=C(C(=O)OC)C2=C(C)C=C(OC)C(=C(C)C2=C(C)C=C1)OC(C)=O,5.77697704
7121,EYIDIA,C29 H29 N2 O1 P1,CC(C)(C)C(=O)Nc1ccccc1N=P(c1ccccc1)(c1ccccc1)c1ccccc1,5.66758728
7122,EYIKON,C16 H14 O2,O=C1C=C(C2CCCC=C2)c2ccccc2C1=O,5.91575511
7123,EYILIJ,C19 H25 N5,CCCCN(CCCC)c1ccc(cc1)C=NC(C#N)=C(N)C#N,5.20526584
7124,EYIMIK,C27 H26 O1,Cc1ccc(cc1)C(=CC=CC(=O)c1ccccc1)c1c(C)cc(C)cc1C,5.8251412
7125,EYIVUD,C9 H13 N1 O3 S2,C[N+](C)(C)c1ccc(SS(=O)(=O)[O-])cc1,5.8591554299999995
7126,EYIZER,C25 H24 O8,COc1cc(C=CC(O)=CC(=O)C=Cc2ccc(OC(C)=O)c(OC)c2)ccc1OC(C)=O,5.57207532
7127,EYOWAR,C16 H13 F3 N2 O1 S3,FC(F)(F)C(CC(=O)C1=CC=CS1)=NNC(=S)SCc1ccccc1,5.82813445
7128,EYUJIS,C34 H28 S4,Cc1ccc(cc1)C1=C(SC(S1)=C1SC(=C(S1)c1ccc(C)cc1)c1ccc(C)cc1)c1ccc(C)cc1,4.93505679
7129,EYUJOY,C30 H22,C1Cc2ccccc2C(c2ccccc12)=C1c2ccccc2C=Cc2ccccc12,5.51710832
7130,EYULOB,C26 H24 N2 O3 S1,CCOc1ccc(cc1)N1C(=O)C(=Cc2ccc(OC)cc2)N=C1Sc1ccc(C)cc1,5.48118929
7131,EYUMIW,C17 H21 N3 O1 S1,CC1(C)C2CCC1(C)C(=O)C2=NNC(=S)Nc1ccccc1,5.52472751
7132,EYUSIC,C14 H12 Br1 N1 O2,Cc1ccc(O)c([NH+]=Cc2cc(Br)ccc2[O-])c1,4.99328916
7133,EYUXEB02,C12 H8 S3,S1C=CC=C1C1=CC=C(S1)C1=CC=CS1,5.533435150000001
7134,EZAFOC,C20 H24 N2 O5,CN(C)c1ccc(cc1)N(C)C=CC=C(O)C=C1C(=O)OC(C)(C)OC1=O,4.33667844
7135,EZAFUI,C19 H21 N1 O6,COc1ccc(cc1)N(C)C=CC=C(O)C=C1C(=O)OC(C)(C)OC1=O,4.44443552
7136,EZAGAP,C19 H21 N1 O6,COc1ccc(cc1)[NH+](C)C1C=CC(=O)C1C1=C([O-])OC(C)(C)OC1=O,4.69423604
7137,EZAGET,C18 H19 N1 O5,CN(C=CC=C(O)C=C1C(=O)OC(C)(C)OC1=O)c1ccccc1,4.44280284
7138,EZAGIX,C18 H18 F1 N1 O5,CN(C1C=CC(=O)C1C1C(=O)OC(C)(C)OC1=O)c1ccc(F)cc1,6.15684798
7139,EZAKAS,C20 H12 Cl1 N1 O2,Cc1ccc(cc1)c1c(Cl)cnc2C(=O)c3ccccc3C(=O)c12,5.89480234
7140,EZAKOG,C17 H14 O8,COC(=O)C1=CC(=CC(=O)C21OC(=O)c1c(O)cc(C)cc1O2)OC,6.01698146
7141,EZALIC,C13 H14 Br1 N1 O2,CCN(CC)c1ccc2C=C(Br)C(=O)Oc2c1,5.81099128
7142,EZAMIC,C23 H18 O1,O=C(C=C(C=Cc1ccccc1)c1ccccc1)c1ccccc1,5.847182419999999
7143,EZARUU,C25 H15 Cl1 O4,Clc1ccc(CC2(C(=O)Oc3ccccc23)C2=CC(=O)c3ccccc3C2=O)cc1,5.464046119999999
7144,EZASAB,C26 H18 O5,COc1ccc2C(=O)C(=CC(=O)c2c1)C1(Cc2ccccc2)C(=O)Oc2ccccc12,5.63765476
7145,EZASEF,C31 H20 O4,O=C1Oc2ccccc2C1(Cc1ccccc1)C1=CC(=O)c2cccc(c3ccccc3)c2C1=O,5.695615
7146,EZBTCH10,C38 H29 N1 O3,CCOC(=O)N1C=CC2C=CC1C13c4ccccc4c4ccccc4C1=C(C(=O)C23c1ccccc1)c1ccccc1,6.00391999
7147,EZEDEU,C17 H9 N1 O2,O=C1c2ccccc2C(=O)c2c3ccccc3cnc12,5.85153624
7148,EZEDOD,C10 H10 O6,COc1cc(C(O)=O)c(OC)cc1C(O)=O,6.1095001700000005
7149,EZEKEB,C18 H11 N1 O3,COc1cccc2c3ncc4ccccc4c3C(=O)C(=O)c12,5.45942018
7150,EZENEC,C21 H16 Cl1 N1 O3,CCOC(=O)C1=C(C)ON=C1c1c2ccccc2c(Cl)c2ccccc12,5.3013220400000005
7151,EZEQEG,C28 H20 N4 O2,CN1CC(C#N)(C#N)C2(C(=O)c3cccc4cccc2c34)C21C(=O)N(CC=C)c1ccccc21,6.22297164
7152,EZESEI,C21 H19 N1 O7,COC(=O)C1=C(C(=O)OC)C2(OC3C=CC=CN13)C(=O)Oc1c(C)ccc(C)c21,6.12664335
7153,EZETIO,C26 H25 F3 N4 O3,CC1=CN(C=N1)C1=CC=C2N(CCN(CC34CC3C(C)(C)Oc3ccc(cc43)C(F)(F)F)C2=O)C1=O,5.68663525
7154,EZEVIP,C29 H24 N2 O2 S1,CN(C)c1cccc2c1cccc2S(=O)(=O)NCc1ccc2ccc3cccc4ccc1c2c34,5.75575217
7155,EZEWUC,C19 H12 Cl1 N3 O2 S3,CC(=O)N(N1C(=S)SC(=Cc2ccc(Cl)cc2)C1=O)C1=Nc2ccccc2S1,5.4656788
7156,EZIFEA,C13 H12 Br1 Cl1 N2,CC(Nc1ccc(Cl)cc1)c1cccc(Br)n1,6.1990256299999995
7157,EZISUB,C31 H32 O2,COc1ccc(cc1)C(=Cc1cc(C)c2cc(ccc(C)c12)C(C)C)c1ccc(OC)cc1,4.73260409
7158,EZITAI,C32 H36,CC(C)c1ccc(C)c2c(C=Cc3cc(C)c4cc(ccc(C)c34)C(C)C)cc(C)c2c1,4.426203900000001
7159,EZITEM,C26 H21 Cl1 O2,COc1ccc(cc1)C(=Cc1cc(Cl)c2cccccc12)c1ccc(OC)cc1,4.51845049
7160,EZITIQ,C31 H33 N1,CC(C)c1ccc(C)c2c(c1)c(C)cc2C(=Cc1ccc(cc1)N(C)C)c1ccccc1,4.80525849
7161,EZIVUG,C29 H18 O6,Oc1cccc2C3=C4C=CC(=O)c5c(O)ccc(c6ccc(O)c7C(=O)CC(CC(=O)c12)C3c67)c45,5.63983167
7162,EZOCUT,C30 H36 S4,CCCCCCC1=CC=C(S1)C1=C(SC=C1)C=CC1=C(C=CS1)C1=CC=C(CCCCCC)S1,5.0395485099999995
7163,EZOJUZ,C12 H12 O5,CC1=CC2=C(C=O)C(=O)C(C)(O)C(O)C2=CO1,5.85017567
7164,EZOLEM,C16 H12 O3 S1,OC(C(=O)C1=CC=CS1)c1ccc2ccccc2c1O,6.13725578
7165,EZOMAI,C19 H17 Br1 O4,CC1C2OC3C4C2OC(=O)C21CCC1=CC(=O)C(=C(C)C3=C1C42)Br,5.981334550000001
7166,EZONAK,C19 H14 Cl2 O1,Clc1ccc(cc1)C=C1CCC(=Cc2ccc(Cl)cc2)C1=O,5.811263390000001
7167,EZOPOZ,C18 H6 F4 N2 O1,Fc1c(F)c(F)c2N3C(=O)c4cccc5cccc(C3=Nc2c1F)c45,5.5168362
7168,EZOPUF,C22 H17 Br1 O1,CC(=C)C1Oc2ccc3ccccc3c2C1=Cc1ccc(Br)cc1,5.3889427
7169,EZOVIA,C20 H12 O5 S1,O=C(c1ccccc1)C1=C(C2=CC=CO2)S(=O)(=O)c2ccccc2C1=O,5.72990135
7170,EZOWEX,C16 H24 O3,COCC1=C(C=C(C(=O)C1=O)C(C)(C)C)C(C)(C)C,5.6996967099999996
7171,EZOWIB,C15 H22 O2,CC1=C(C=C(C(=O)C1=O)C(C)(C)C)C(C)(C)C,5.58540889
7172,EZOZAW,C36 H39 N5 O1,CCC1=C(C)C2=CC3=CC(=NN3Cc3ccccc3)C(=O)C3=C(C)C(=C(N3)C=C3N=C(C=C1N2)C(=C3CC)CC)CC,3.89639823
7173,EZUFOW,C30 H20 O1,O1C(=CC2=C(C3c4ccccc4C12c1ccccc31)c1ccccc1)c1ccccc1,5.358193829999999
7174,EZUGAJ,C32 H18 F6 O1,FC(F)(F)c1ccc(cc1)C1=CC2=C(C3c4ccccc4C2(O1)c1ccccc31)c1ccc(cc1)C(F)(F)F,5.3105739
7175,EZUGIR,C36 H25 N3 O1,CN(C)c1ccc(cc1)C1=C2C=C(OC32c2ccccc2C1c1ccccc31)c1ccc(cc1)C=C(C#N)C#N,3.7374837399999996
7176,EZUHIR,C50 H36,CC(C)(C)c1cc2c3cccc4c5ccccc5c5c6cc(cc7c8cccc9c%10ccccc%10c%10c(c1)c2c(c5c34)c(c67)c%10c89)C(C)(C)C,4.43382308
7177,EZUHIS,C31 H27 N1 O2,CN1C(C(C(C1C(=O)c1ccccc1)C(=O)c1ccccc1)c1ccccc1)c1ccccc1,6.45236363
7178,EZUHUC,C40 H24 N6,c1ccc2c(c1)nc1ccccc1c2c1cccc(n1)c1cc(ncn1)c1cccc(n1)c1c2ccccc2nc2ccccc12,5.69180541
7179,EZUJEQ,C18 H10 F2,FC(F)=CC#Cc1c2ccccc2cc2ccccc12,5.03682737
7181,EZUKER,C29 H21 N1 O3 S2,O=CC(Sc1ccccc1)(Sc1ccccc1)C(N1C(=O)c2ccccc2C1=O)c1ccccc1,5.93616365
7182,EZUKIV,C40 H38,CCCCCc1ccc(cc1)C#Cc1ccc2cc3cc(ccc3cc2c1)C#Cc1ccc(CCCCC)cc1,4.93478468
7183,EZUNET,C18 H15 Br1 Cl1 N3 O2,Cc1cc(Br)cc(C)c1OC1=NN(Nc2ccc(Cl)cc2)C(=O)C=C1,5.90242153
7184,EZUNIX,C13 H12 N4 O2,Cc1cc(cc(C)c1OC1=NN(N)C(=O)C=C1)C#N,6.41562825
7186,EZUVAW,C19 H16 N2 O3,COc1ccc2NC(=Cc2c1)C(=O)C1=Cc2cccc(OC)c2N1,5.63112402
7187,EZUWED,C17 H12 N4 S1,N(N=Cc1ccc2ccccc2n1)C1=Nc2ccccc2S1,5.20254471
7188,EZUWIG,C15 H15 N1 O2,Cc1cccc(C)c1[NH+]=Cc1cccc(O)c1[O-],5.25723959
7189,EZUWIH,C28 H20 N2 O4,O=C1N(Cc2ccccc2)C(=C2C(=O)N(Cc3ccccc3)C(=C12)C1=CC=CO1)C1=CC=CO1,4.28742583
7190,EZUWON,C28 H20 N2 O2 S2,O=C1N(Cc2ccccc2)C(=C2C(=O)N(Cc3ccccc3)C(=C12)C1=CC=CS1)C1=CC=CS1,4.2520510300000005
7191,EZUWUS,C17 H21 N1 O2,Oc1cccc(C=[NH+]C2C3CC4CC(C3)CC2C4)c1[O-],5.49833246
7192,EZUWUT,C24 H21 N3,CN(C)c1ccc(cc1)C=NN=Cc1c2ccccc2cc2ccccc12,4.89505605
7193,EZUYEF,C20 H19 N3 O1,CN(C)c1ccc(cc1)C=NN=Cc1c(O)ccc2ccccc12,5.36690147
7195,FABDIY,C27 H25 F3 N2 O1,CN(C)Cc1cccc(c1N1C=CC=C1C(O)(c1ccccc1)c1ccccc1)C(F)(F)F,6.5299160700000005
7196,FABDUJ,C20 H15 N3 O1,O=C(Nc1ccncc1)Nc1c2ccccc2cc2ccccc12,5.54350337
7198,FABPIH10,C9 H6 S3,S=C1SSC=C1c1ccccc1,5.591939630000001
7199,FABPON10,C9 H6 S3,S=C1SSC(=C1)c1ccccc1,5.2890769099999995
7200,FABVAG,C32 H42 O2,CC1=C2OCCCCCCCCCCOC3=C(C)C4=CC=C1C1(C)C(=C2C)C=CC(=C3C)C41C,4.74403286
7201,FACBOC,C18 H16 N2 S3,CC1=CC(=C(C)S1)C1=CC2=NSN=C2C=C1C1=C(C)SC(=C1)C,5.79466444
7202,FACFUN,C19 H19 N3 O2 S1,CN1C(=CC(=O)C(=C1CNC(=S)Nc1cccc2ccccc12)O)C,6.04364862
7203,FACHOJ,C19 H18 B1 F2 N9,F[B-]1(F)N2C=CC=C2C(=C2C=CC=[N+]12)c1ccc(cc1)N(CCN=[N+]=[N-])CCN=[N+]=[N-],4.86593988
7204,FACKAW,C8 H8 F1 N3 S1,NC(=S)NN=Cc1ccc(F)cc1,5.94269438
7205,FACKEA,C14 H12 F1 N3 S1,Fc1ccc(cc1)C=NNC(=S)Nc1ccccc1,5.90813592
7207,FACSEI01,C19 H20 N4,CCN(CC)c1ccc(cc1)c1cc(C)c(C#N)c(N)c1C#N,5.71411875
7208,FACWAH,C25 H29 N3 O4,Oc1ccc2C=CC(=O)NCCCCNCCCNC(=O)C=Cc3ccc(Oc1c2)cc3,6.31521824
7209,FACWEM,C12 H12 Cl3 N1 O2,CCN(CC)C=CC1=C(Cl)C(=O)C(=C(Cl)C1=O)Cl,4.13857955
7210,FACWUC,C20 H10 N2,N#CC(C#N)=C(C#Cc1ccccc1)C#Cc1ccccc1,5.364996680000001
7211,FACYUE,C3 H8 N2 S2,[NH3+]CCNC(=S)[S-],4.25395583
7212,FACZAL,C15 H13 Br1 O3,CC1(C)OC2=C(CC1Br)C(=O)C(=O)c1ccccc21,5.822147950000001
7213,FADBIW,C30 H25 N1 O2 S1,Cc1ccc(cc1)C1C(N(OC21SCc1ccccc1C2=O)c1ccccc1)c1ccccc1,6.07194846
7214,FADBUI,C17 H12 Cl1 N1 O1,Oc1ccc2ccccc2c1C=Nc1cccc(Cl)c1,5.67765549
7215,FADDOD02,C28 H40 O2,CC(C)(C)C1=CC(C=C(C1=O)C(C)(C)C)=C1C=C(C(=O)C(=C1)C(C)(C)C)C(C)(C)C,4.26375193
7218,FADFOF,C19 H14,Cc1cccc2cc3c(ccc4ccccc34)cc12,5.70432265
7219,FADGOJ,C19 H16 Cl1 N1 O3,COC(=O)C1=C2C=C(Cl)C=CN2C2=C1CCc1cc(OC)ccc21,5.79248754
7220,FADHIE,C30 H24 N2,C1Cc2cccnc2N1C1=C(c2ccccc2C1)C(=Cc1ccccc1)c1ccccc1,5.6896285
7221,FADLED,C11 H10 N2 S1,Cc1cccc(n1)C1=CC=CC(=S)N1,5.01152078
7222,FADMAB,C20 H19 N1 O6 S1,COC(=O)N1C=C(Sc2ccccc12)C(=O)c1cc(OC)c(OC)c(OC)c1,6.0090901599999995
7223,FADMIJ,C16 H10 N2 O2,O=C1OC(=C2C=Nc3ccccc3N12)c1ccccc1,5.33506415
7224,FADSOS,C12 H18 Cl1 N1 O6,CC1(C)OCC(O1)C1OC(Cl)(N=O)C2OC(C)(C)OC12,7.372652669999999
7225,FADTUB,C12 H16 N6,CN(N)c1cccc(n1)c1cccc(n1)N(C)N,6.10052041
7226,FADWAL,C9 H9 N3 O1 S1,CC1=CSC(=N1)C1=CC(=NNC1=O)C,5.978069189999999
7227,FADXOX,C12 H10 O4,Cc1ccc(O)c2C(=O)C(=C(O)C(=O)c12)C,5.95303471
7228,FADYUH,C17 H17 N1 O3 S1,COC(=O)N1C=C(Sc2ccccc12)C(=O)C1=CCCCC1,6.09290122
7229,FAFJIF,C8 H12 N5 P1,CN(C)C1=NC(=C2N=PN=C12)N(C)C,5.01342558
7230,FAFMUV,C24 H23 N1 O6 S1,Cc1ccc(cc1)C(=O)OCC1OC(CC1OC(=O)c1ccc(C)cc1)C1=[N+]([O-])C=CS1,6.52719493
7231,FAFPAF,C16 H9 N1 O2 S1,O=C1C(Nc2ccccc12)=C1Sc2ccccc2C1=O,4.54729455
7233,FAFQEL,C20 H20 O6,CCOC(=O)C1=CC2(C=CC(=O)C=C2OC)c2cc(OC)c(OC)cc12,6.1802497700000005
7234,FAFQOV,C20 H20 O6,CCOC(=O)C1=Cc2cc(OC)c(OC)cc2C21C=CC(=O)C=C2OC,6.09317334
7235,FAFQUA,C29 H18 F3 N3,FC(F)(F)c1ccc2c(c1)nc1N(N=C(c3ccccc3)c1c2c1ccccc1)c1ccccc1,5.435202049999999
7236,FAFQUB,C26 H24 O6,CCOC(=O)C1=CC2(C=CC(=O)C=C2OCc2ccccc2)c2cc(OC)c(OC)cc12,6.15575952
7237,FAFRAI,C20 H19 Br1 O6,CCOC(=O)C1=CC2(C=C(Br)C(=O)C=C2OC)c2cc(OC)c(OC)cc12,5.94595974
7238,FAFWAN,C23 H18 F2 N2 O1,COc1ccc2nc(ccc2c1)C(Nc1ccc(F)cc1)c1ccc(F)cc1,5.6801045100000005
7239,FAFWEP,C34 H32 N2 O7,CCOC(=O)C(=C1OC(=O)c2ccccc12)C1=CCCCN1C1=C(C(=O)OCC)C2=CCCCN2C(=O)c2ccccc12,5.4705768500000005
7240,FAFWIT,C36 H38 N2 O8,CCOC(=O)C(=C1CCCCCN1)C(=O)c1ccccc1C(=O)N1CCCCC=C1C(C(=O)OCC)=C1OC(=O)c2ccccc12,5.898611929999999
7241,FAFXAO,C20 H18 F1 N3 O2,COc1ccc(cc1)N1COCC1(c1ccc(F)cc1)c1ncccn1,5.71874469
7242,FAFYEQ,C13 H13 N1 O7,COC(=O)C1CC2=C(N1C(C)=O)C(=O)OC(=C2)C(=O)OC,5.90595901
7243,FAGBOE,C19 H22 N2 O3 S2,CCN(CC)C(=NS(=O)(=O)c1ccc(C)cc1)C(=S=O)c1ccccc1,6.02732179
7244,FAGFOJ,C15 H17 N3 O1 S1,COc1ccccc1NC(=S)Nc1cc(C)cc(C)n1,6.10188098
7245,FAGFUR,C48 H32 N2 O2 S1,O=S(=O)(c1ccc(cc1)c1ccc(cc1)N1c2ccccc2c2ccccc12)c1ccc(cc1)c1ccc(cc1)N1c2ccccc2c2ccccc12,5.6901727300000005
7246,FAGGAW,C14 H15 N3 O1 S1,COc1ccccc1NC(=S)Nc1ccc(C)cn1,6.206100589999999