,ID,formula,smiles,HOMO_LUMO_gap
471,AJAFEY,C19 H13 N3 O1 S2,O=C1N(N=CC2=CC=CS2)C(=NC1=CC1=CC=CS1)c1ccccc1,5.193564950000001
472,AJANEG,C14 H12 O3 S2,CCc1ccc(cc1)C(=O)C1=C(SC)SC(=O)C1=O,5.92609544
475,AJAXER,C16 H12 N2 O2,Oc1ccc2ccccc2c1C=NN=CC1=CC=CO1,5.566633039999999
476,AJEHIH,C24 H32 N2,CCN(CC)Cc1c2ccccc2c(CN(CC)CC)c2ccccc12,5.37098318
480,AJESAK,C11 H9 N1 O3,CC1=NOC(=O)C1=Cc1ccccc1O,5.75030989
481,AJETOB,C38 H24 N4 O4,O=C1N(CCc2ccccc2)C(=O)c2cnc3c4ccc5C(=O)N(CCc6ccccc6)C(=O)c6cnc(c7ccc1c2c37)c4c56,4.48688528
482,AJETUH,C38 H40 N4 O4,CCCCCCCCN1C(=O)c2ccc3c4ncc5C(=O)N(CCCCCCCC)C(=O)c6ccc(c7ncc(C1=O)c2c37)c4c56,4.44742877
483,AJEVER,C11 H9 N3 O1,CN1C(=O)c2ccccc2C1=C(N)C#N,5.911945510000001
484,AJEXAP,C18 H12 N2,N#CC(C#N)=C(C=Cc1ccccc1)c1ccccc1,5.6504441100000005
485,AJEXIZ,C18 H16 N2 O4,COc1nc(OC)c2ccc3c(OC)nc(OC)c4ccc1c2c34,5.336968949999999
486,AJEXOF,C18 H16 N2,Cc1nc(C)c2ccc3c(C)nc(C)c4ccc1c2c34,5.3870379
487,AJEXUL,C22 H24 N2,CCc1nc(CC)c2ccc3c(CC)nc(CC)c4ccc1c2c34,5.395201309999999
488,AJEYAS,C26 H23 N1 O4,COc1ccc2N3c4ccc(OC)cc4C(=O)c4cc(cc(C(=O)c2c1)c34)C(C)(C)C,5.21859943
489,AJEYEW,C26 H17 F6 N1 O2,CC(C)(C)c1cc2C(=O)c3cc(ccc3N3c4ccc(cc4C(=O)c(c1)c23)C(F)(F)F)C(F)(F)F,5.63819898
490,AJEYIA,C24 H17 Br2 N1 O2,CC(C)(C)c1cc2C(=O)c3cc(Br)ccc3N3c4ccc(Br)cc4C(=O)c(c1)c23,5.42676652
491,AJIBED,C54 H50,Cc1ccc(cc1)C(=C=C=C1c2cc(cc3cc(cc(C1=C=C=C(c1ccc(C)cc1)c1ccc(C)cc1)c23)C(C)(C)C)C(C)(C)C)c1ccc(C)cc1,3.4425123300000005
492,AJIBIH,C54 H42,CC(C)(C)c1cc2cc(cc3C(=C=C=C4c5ccccc5C=Cc5ccccc45)C(=C=C=C4c5ccccc5C=Cc5ccccc45)c(c1)c23)C(C)(C)C,3.41584516
493,AJIBOM,C26 H11 F12 N5,FC(F)(F)c1cc(c2ccc(nc2n1)N(c1ccccc1)c1ccc2c(n1)nc(cc2C(F)(F)F)C(F)(F)F)C(F)(F)F,5.686907359999999
494,AJIGAB,C3 H6 N6 S3,CN(C)c1ns2N=S=Ns(n1)n2,5.79602502
495,AJIGEF,C8 H7 N5 S3,Cc1ccc(cc1)c1ns2N=S=Ns(n1)n2,5.46459035
496,AJIGIJ,C7 H4 F1 N5 S3,Fc1ccc(cc1)c1ns2N=S=Ns(n1)n2,5.630579789999999
497,AJIGUV,C7 H3 F2 N5 S3,Fc1cccc(F)c1c1ns2N=S=Ns(n1)n2,5.84228437
498,AJIHAC,C8 H4 N6 S3,N#Cc1ccc(cc1)c1ns2N=S=Ns(n1)n2,5.9807903200000005
499,AJIRUH,C23 H22 N4 O1,CC(C)(C)C1=NN(c2ccccc2)C(=C1)N=CC1=Cc2ccccc2NC1=O,5.36744571
500,AJIXEW,C16 H21 N1 O5,COC(=O)C1=CC(=O)CCCC(=C1C(=O)OC)N1CCCC1,6.101064650000001
501,AJIXEZ,C20 H4 F10 O1,Fc1c(F)c(F)c(c(F)c1F)C1=C2C=CC=CC2=C(O1)c1c(F)c(F)c(F)c(F)c1F,5.25615114
502,AJOFUB,C19 H13 F1 N4 O1 S1,COc1ccc(cc1)C1=C2CSc3ccc(F)cc3C2=NC2=NC=NN12,5.82405275
503,AJOJAM,C22 H18 N2 O4 S1,CCc1ccc(NS(=O)(=O)c2ccc(cc2)N2C(=O)c3ccccc3C2=O)cc1,6.14079327
504,AJOJEQ,C10 H8 N4 O1,Cc1cc2ccccc2[n+]([O-])c1N=[N+]=[N-],5.81806624
505,AJOLIW,C17 H14 Cl1 F1 O3,COc1ccc(cc1OC)C(=O)C=Cc1ccc(F)cc1Cl,5.818610469999999
506,AJOPUN,C22 H20 I1 N1 O5,COC(=O)C(c1ccccc1)=C1C(=O)N(C(=O)OC(C)(C)C)c2ccc(I)cc12,5.98541625
507,AJORID,C21 H12 Cl2 O1 S2,Clc1ccc(SC2=C(Sc3ccc(Cl)cc3)c3ccccc3C2=O)cc1,5.09914144
508,AJOTEZ,C32 H34 O2 S2,O=S(C1CCCCC1)c1ccc2ccccc2c1c1c2ccccc2ccc1S(=O)C1CCCCC1,6.2194341600000005
509,AJOWAY,C29 H39 Cl1 N4 O3,CCCCCCCC(=O)N1CCN(CC1)c1ccc(N=Nc2ccc(cc2)C(=O)OCCCC)c(Cl)c1,5.46976051
510,AJOWEC,C27 H35 Cl1 N4 O3,CCCCCC(=O)N1CCN(CC1)c1ccc(N=Nc2ccc(cc2)C(=O)OCCCC)c(Cl)c1,5.39003115
511,AJOYUV,C20 H20 N2 O5 S1,COc1ccc(OC)c(c1)C1=NOC(=C1)C1=CC=C(S1)C(=O)N1CCOCC1,6.14269806
512,AJUDIT,C26 H21 N1 O5,COC(=O)C1=C(C2N(C1c1ccccc1)c1ccccc1Oc1ccccc21)C(=O)OC,5.8762986
513,AJUDOZ,C26 H20 Br1 N1 O5,COC(=O)C1=C(C2N(C1c1ccccc1Br)c1ccccc1Oc1ccccc21)C(=O)OC,5.86106022
514,AJUFAN,C25 H21 N1 O3,COC(=O)C1=C(C)C(N2C1c1ccccc1Oc1ccccc21)c1ccccc1,6.10569058
515,AJUFAO,C16 H13 Br1 O1 S1,CSc1ccc(C=CC(=O)c2cccc(Br)c2)cc1,5.63874321
516,AJUFER,C24 H19 N1 O3,COC(=O)C1=CC2N(C1c1ccccc1)c1ccccc1Oc1ccccc21,6.1288202499999995
517,AJUFES,C21 H17 N1 O1,Oc1ccccc1C=Nc1ccccc1C=Cc1ccccc1,5.9002446200000005
518,AJUFIV,C30 H23 N1 O3,COC(=O)C1=C(C2N(C1c1ccccc1)c1ccccc1Oc1ccccc21)c1ccccc1,5.96609617
519,AJUFIW,C23 H21 N1 O3,COc1ccc(C=Cc2ccccc2N=Cc2ccccc2O)cc1OC,5.42078001
520,AJUGIW,C14 H13 N1 O3,O=C1CCC2=C1NCCc1cc3OCOc3cc21,5.79738558
521,AJULEX,C18 H25 Br1 N2 O2 Se1,CCN(CC)C(=[Se])C(C(C)=O)=C(Nc1ccc(Br)cc1)OC(C)C,5.51139392
522,AJULUM,C19 H18 Cl1 N3 O5 S2,COc1cc(NC(=O)C(C#N)=C(NS(=O)(=O)c2ccccc2Cl)SC)cc(OC)c1,5.977797070000001
523,AJUMAT,C15 H11 N1 S1,S1C=CC=C1C=Cc1ccc2ccccc2n1,5.861604450000001
524,AJUWAE,C20 H14 F6 N2 O2,CC(C)(C)C1=C([O-])N(C=[N+](C1=O)c1c(F)cc(F)cc1F)c1c(F)cc(F)cc1F,5.8398353499999995
525,AJUWEH,C25 H21 N1 O2,CN1c2ccccc2C(=O)C2C(=O)c3ccccc3C(c3ccccc3)C12C,6.10296944
526,AKADAR,C20 H15 N3 O1,O=C(c1ccccc1)C(=NN=Cc1ccccn1)c1ccccc1,6.48365671
527,AKADIA,C37 H45 N3,CC(C)c1cccc(C(C)C)c1N=C(C)c1ccc2cccc(C(C)=Nc3c(cccc3C(C)C)C(C)C)c2n1,5.89235332
528,AKAGER10,C20 H24 N2 O2,CC=C(C=O)C1CC(O)N2c3ccccc3C3=C2C(C1)N(C)CC3,6.2809319
529,AKAKEE,C16 H11 F4 I1 N4,CN(C)c1ccc(cc1)C1=CN(N=N1)c1c(F)c(F)c(I)c(F)c1F,5.5298976699999995
530,AKALIJ,C16 H11 Br1 N2 O4,COc1cc(c(OC)cc1Br)c1cc(O)c(C#N)c(C#N)c1O,6.05262838
531,AKAPIL,C18 H22 O2,CC(C)(C)c1ccc2C(=O)C(=O)C(=Cc2c1)C(C)(C)C,5.906503239999999
532,AKATEM,C34 H32 O2,CC(C)(C)c1ccc(cc1)c1ccc2C(=O)c3ccccc3C(=O)c2c1c1ccc(cc1)C(C)(C)C,5.501325719999999
533,AKATIQ,C22 H13 F3 O6 S1,COc1ccc(cc1)c1c(OS(=O)(=O)C(F)(F)F)ccc2C(=O)c3ccccc3C(=O)c12,5.29506342
534,AKATOW,C31 H23 F3 O2,CC(C)(C)c1ccc(cc1)c1ccc2C(=O)c3ccccc3C(=O)c2c1c1ccc(cc1)C(F)(F)F,5.78078664
535,AKAXIT,C35 H30 N2 O5 S1,CCOC(=O)N1SN(C(=O)OCC)C2(c3ccccc3)C(=C(C(=O)C12c1ccccc1)c1ccccc1)c1ccccc1,5.88255722
536,AKAYUI,C34 H22 O5 S1,COC(=O)C1=C(C2=CC=CS2)c2ccccc2C(=O)C1(C(=O)OC)c1ccc2ccc3cccc4ccc1c2c34,5.16363243
537,AKEDOL,C30 H19 N3 O1,O=C(c1ccccc1)C1=C(c2ccc3ccccc3c2)C(=C(N1)C1=CNc2ccccc12)C#N,5.90242154
538,AKEFED,C22 H17 N3 O2 S1,COc1ccc(cc1)C=NN1C(=O)C(=CC2=CC=CS2)N=C1c1ccccc1,5.143496000000001
539,AKEGII,C24 H21 N3 O1 S1,CC(C)c1ccc(cc1)C=NN1C(=O)C(=CC2=CC=CS2)N=C1c1ccccc1,5.028663959999999
540,AKEPIQ,C18 H20 O4,CC(C)=C1C(=O)OC(=O)C1=C1CCCCC2=C(C)OC(=C12)C,5.866774619999999
541,AKEQAJ,C14 H19 N5 O4 S2,CCOC(=O)CSC(SCC(=O)OCC)=NN=C(N)c1cnccn1,6.04392073
542,AKEQEN,C8 H11 N5 S2,CSC(=S)N(C)N=C(N)c1cnccn1,5.79602502
543,AKEQIR,C14 H15 N5 S2,CN(N=C(N)c1cnccn1)C(=S)SCc1ccccc1,5.826501759999999
544,AKEQOX,C11 H11 N5,NC(=NNc1ccccc1)c1cnccn1,5.60527321
545,AKERAK,C30 H17 Br1,Brc1c2ccc3ccc4ccccc4c3c2cc2c1ccc1ccc3ccccc3c21,5.19383706
546,AKESAM,C25 H20 O4,COc1ccc(cc1)C(=O)C=C1C=C(Oc2ccccc12)c1ccc(OC)cc1,5.32798919
547,AKESEQ,C23 H14 Br1 Cl1 N2 O2,Clc1cccc(c1)C1=C(Nc2ccc(Br)cc2)C2=C(N1)c1ccccc1OC2=O,5.81126339
548,AKESOA,C32 H28 N2 O1,Cc1ccc(cc1)C(=O)C=C(C1=CC=CN1Cc1ccccc1)C1=CC=CN1Cc1ccccc1,5.528537099999999
549,AKETAN,C13 H10 Cl1 N3 O2,CCOC(=O)C1=NC2=Nc3ccccc3N2C=C1Cl,5.93235405
550,AKEVAP,C25 H25 N1 O9,CCOC(=O)c1c(C)c2C(=O)N(C(=O)c2c(C(=O)OCC)c1C(=O)OCC)c1ccc(OC)cc1,5.8074538
551,AKIBON,C31 H25 N3 O4,COc1nc2c(C)cccc2cc1C1CN(C)C2(C(=O)c3ccccc3C2=O)C21C(=O)Nc1ccccc21,6.13616733
552,AKIJIP,C17 H16 N2 O4 S1,CN1c2ccccc2C(=C(C(=O)NCc2ccccc2)S1(=O)=O)O,6.5048816
553,AKILIR,C22 H15 As1 Br2,Brc1ccc(cc1)C1=CC=C([As]1c1ccccc1)c1ccc(Br)cc1,5.4308482300000005
554,AKILOX,C24 H21 As1 O2,COc1ccc(cc1)C1=CC=C([As]1c1ccccc1)c1ccc(OC)cc1,5.4401000999999995
555,AKILUD,C26 H27 As1 N2,CN(C)c1ccc(cc1)C1=CC=C([As]1c1ccccc1)c1ccc(cc1)N(C)C,5.04335811
556,AKIPUF,C22 H15 F1 O3 S1,Fc1ccc(cc1)C1OC21C(c1ccccc1)S(=O)c1ccccc1C2=O,6.505697940000001
557,AKOBOR,C12 H14 O2 S5,CCc1c2SSSc2c(CC)c2c1S(=O)CCS2=O,6.06160813
558,AKOBOT,C50 H36 N2,Cc1cc(cc(c2ccccc2)c1N=C1c2cccc3cccc(C1=Nc1c(C)cc(cc1c1ccccc1)c1ccccc1)c23)c1ccccc1,5.71248606
559,AKOBUX,C11 H12 O1 S5,CCc1c2SCS(=O)c2c(CC)c2SSSc12,5.91140129
560,AKOCOU,C11 H11 N1 O2,CCCN1C(=O)C(=O)c2ccccc12,6.1707257900000005
561,AKOHUF,C23 H17 N1 O4 S1,COC(=O)C(Sc1ccccc1)(N1C(=O)c2ccccc2C1=O)c1ccccc1,6.16065757
562,AKORUP,C12 H9 Br1 N2 O3,CC1=CC(=O)C(=NN1c1ccc(Br)cc1)C(O)=O,6.70978332
563,AKOSUO,C22 H21 N1 O2,O=C1N(C2CCCCC2)C(=O)C(=C1c1ccccc1)c1ccccc1,5.943782839999999
564,AKOTAX,C18 H14 Br1 N3 O2,CC1=CC(=O)C(=NN1c1ccc(Br)cc1)C(=O)Nc1ccccc1,6.088547409999999
565,AKOTEB,C18 H13 Br1 N4 O1,CC1=CC2=NN(c3ccccc3)C(=O)C2=NN1c1ccc(Br)cc1,5.35438424
566,AKOTIF,C41 H32 N2 O2,CC(C1=Cc2ccccc2OC1=O)(C1=CN(Cc2ccccc2)c2ccccc12)C1=CN(Cc2ccccc2)c2ccccc12,5.86459771
567,AKOVOL03,C5 H5 N1 S1,S=C1C=CNC=C1,5.83956323
568,AKOWEE,C29 H19 N1 O2,COc1ccc2ccccc2c1c1nc(cc2C(=O)c3ccccc3c12)c1ccccc1,5.32309114
569,AKOWUS,C34 H44 N8 O4,CC1(C)CNCC(C)(OCc2cnc3ccccc3n2)C(=O)NC(C)(C)CNCC(C)(OCc2cnc3ccccc3n2)C(=O)N1,5.66296135
570,AKOXUV,C8 H8 O1 S2,O=CC1=C2SSC=C2CCC1,5.5913954
571,AKUCIU,C30 H14 O2 S2,O1C(=Cc2ccccc12)C#CC1=Cc2cc3SC(=Cc3cc2S1)C#CC1=Cc2ccccc2O1,5.20717064
572,AKUCOA,C30 H14 O2 S2,O1C(=Cc2cc3OC(=Cc3cc12)C#CC1=Cc2ccccc2S1)C#CC1=Cc2ccccc2S1,4.94485289
573,AKUDER,C25 H19 Cl1 N2 O2 S1,CCOc1cc(CC(=Cc2ccc(Cl)cc2)C#N)cc(c1O)C1=Nc2ccccc2S1,6.14677977
574,AKUMID,C31 H25 Cl1 O3,OC(C(COc1ccccc1)=C=C=C(COc1ccccc1)c1ccccc1)c1ccc(Cl)cc1,5.867590959999999
575,AKUPUT,C28 H40 O4,CC(C)C(=O)C1=C(O)C2=C(OC3(C)CC=CC(C)(C)CC=C(C)CCC3C2)C(C)(C)C1=O,6.15086147
576,AKUQAA,C28 H40 O4,CC(C)C(=O)C1=C(O)C2=C(OC3(C)CCC4C(CC4(C)C)C(=C)CCC3C2)C(C)(C)C1=O,6.20773327
577,AKUQII,C29 H42 O4,CCC(C)C(=O)C1=C(O)C2=C(OC3(C)CCC4C(CC4(C)C)C(=C)CCC3C2)C(C)(C)C1=O,6.21208709
578,AKUQOO,C22 H15 Br1 N2 O1,Brc1cccc2N(C=Cc12)C(=Nc1ccccc1)C(=O)c1ccccc1,5.7347994
579,AKUQUU,C22 H18 N2 O1,O=C(c1ccccc1)C(=Nc1ccccc1)N1CCc2ccccc12,5.63085191
580,AKUSAC,C15 H21 N3 O3,C[N+](C)=Cc1c([O-])c(C=[N+](C)C)c([O-])c(C=[N+](C)C)c1[O-],5.9941239
581,AKUSEG,C38 H22,Cc1ccc2c(c1)c1ccc3cccc4c3c1c1c2c2cccc3ccc5c6cc(C)ccc6c4c1c5c23,4.27436436
582,AKUSIK,C36 H18,c1ccc2c(c1)c1ccc3cccc4c3c1c2c1c2cccc3ccc5c6ccccc6c(c5c23)c41,3.66673414
583,AKUYOV,C22 H20 O1,C=CC1CCCC1C(=O)c1cc2ccccc2c2ccccc12,6.70080357
584,ALAJIG,C20 H24 N2 O7,CC1(C)OCC2(OCC3OC(C)(C)OC3C2(O)C2=NOC(=N2)c2ccccc2)O1,5.981878779999999
585,ALANEH01,C11 H9 N1 O3 S6,OC(=O)CNC(=O)C1=CSC(S1)=C1SC2=C(SCCS2)S1,5.272205860000001
586,ALAPIM,C21 H28 S2,CCCCCCCCCCCC=C1C2=C(SC=C2)C2=C1C=CS2,5.7606502200000005
587,ALAPUZ,C30 H36 N2 O2,CCN(CC)Cc1cc2ccccc2c(c1O)c1c(O)c(CN(CC)CC)cc2ccccc12,6.56338608
588,ALAQEK,C14 H12 O3 S2,O=C1c2ccccc2C(=O)C23OC12CSCCCS3,5.78160298
589,ALAREL,C28 H22 N2 O4 S1,COc1ccc(cc1)C1C2CSCN2C2(C(=O)Nc3ccccc23)C21C(=O)c1ccccc1C2=O,6.061336020000001
590,ALARIP,C27 H19 Cl1 N2 O3 S1,Clc1ccc(cc1)C1C2CSCN2C2(C(=O)Nc3ccccc23)C21C(=O)c1ccccc1C2=O,5.96228658
591,ALAROV,C19 H18 Cl1 N1 O2,CN1CC(C2C1COc1ccccc21)C(=O)c1ccc(Cl)cc1,6.43358777
592,ALAWAN,C18 H15 N1,Cc1ccc2nc(c3ccccc3)c3CCc3c2c1,5.61806255
593,ALAYOB,C23 H32 N4 Se1,CN(C)c1ccc(CN2CCCCN(Cc3ccc(cc3)N(C)C)C2=[Se])cc1,6.15494318
594,ALEFAZ,C35 H40 N4 O1,CN(C)c1cccc2ccc(c(N(C)C)c12)C(O)(c1ccccc1)c1ccc2cccc(N(C)C)c2c1N(C)C,5.84337282
595,ALEFED,C29 H36 N4 O1,CN(C)c1cccc2ccc(C(O)c3ccc4cccc(N(C)C)c4c3N(C)C)c(N(C)C)c12,6.00419211
596,ALEGUU,C24 H22 N6,C(Nc1ccccc1N=Nc1ccccc1NCc1ccccn1)c1ccccn1,5.25125309
597,ALENAI,C12 H16 N2 S4,NC1=C(CCC1)C(=S)SSC(=S)C1=C(N)CCC1,5.80119518
598,ALESEP,C29 H22 F6 O2 S2,COc1ccc(cc1)C1=CC(=C(C)S1)C1=C(C2=CC(=C(S2)c2ccc(OC)cc2)C)C(F)(F)C(F)(F)C1(F)F,5.9195647000000005
599,ALEXAS,C23 H19 N3 O4,COC(=O)C1C(N2C=Cc3ccccc3C2=C1C(=O)OC)C1=Nc2ccccc2N1,5.76854151
600,ALEXEW,C23 H17 N3 O4,COC(=O)C1=C(N2C=Cc3ccccc3C2=C1C(=O)OC)C1=Nc2ccccc2N1,5.88255722
601,ALEXIA,C23 H19 N3 O4,COC(=O)C1C2N(C=Cc3ccccc23)C(=C1C(=O)OC)C1=Nc2ccccc2N1,5.23628682
602,ALITOF,C22 H16 N2 S4,S(Sc1ccccc1N=CC1=CC=CS1)c1ccccc1N=CC1=CC=CS1,5.8153451
603,ALIVAS,C34 H50 N2 O6,CCCCCCCCCCOc1cc(ccc1N=Nc1ccc(cc1OCCCCCCCCCC)C(O)=O)C(O)=O,5.46268555
604,ALIYOL,C26 H12 F8 N2,Fc1cc(C=C(C#N)c2ccc(cc2)C(F)(F)F)c(F)cc1C=C(C#N)c1ccc(cc1)C(F)(F)F,5.157645919999999
605,ALIYUR,C23 H19 F1 N2 O3,CC1(C)CC(=O)C2=C(C1)N1N(C2c2ccc(F)cc2)C(=O)c2ccccc2C1=O,6.122833750000001
606,ALONAQ,C16 H19 N1 O1,CC1(C)CC(C)(C)C2=[N+]([O-])c3ccccc3C2=C1,5.68609102
607,ALOXAN14,C4 H2 N2 O4,O=C1NC(=O)C(=O)C(=O)N1,6.92012733
608,ALULUP,C24 H22 O4 S2,COc1ccc(C=CC(=O)C(C(=O)C=Cc2ccc(OC)cc2)=C2SCCS2)cc1,5.98160667
609,ALUPUT,C10 H8 Cl1 N3 O1 S2,CSC(=S)NN=C1C(=O)Nc2ccc(Cl)cc12,5.41914733
610,ALUQIH,C40 H34 O10,COc1cc(C=O)c(OC)c2c1cc(OC)c1ccc3c(OC)c(OC)c4ccc5c(OC)cc6c(OC)cc(C=O)c(OC)c6c5c4c3c21,5.43710685
611,ALUQON,C40 H34 O8,COc1ccc(OC)c2c1cc(OC)c1ccc3c(OC)c(OC)c4ccc5c(OC)cc6c(OC)cc(C#C)c(OC)c6c5c4c3c21,5.44173279
612,ALURAA,C38 H32 O9,COc1ccc(OC)c2c1cc(OC)c1ccc3c(OC)c(OC)c4ccc5c(OC)cc6c(OC)cc(C=O)c(O)c6c5c4c3c21,5.20689853
613,ALUREE,C40 H34 O10,COc1cc2c(OC)cc(C(C)=O)c(O)c2c2c1ccc1c(OC)c(OC)c3ccc4c(OC)cc5c(OC)cc(C(C)=O)c(O)c5c4c3c21,5.104583719999999
614,ALUROO,C30 H32 S3,C1CC2CCC1C1=C2C=C(S1)C1=C2C3CCC(CC3)C2=C(S1)C1=CC2=C(S1)C1CCC2CC1,5.94487129
615,ALUTEG,C17 H13 N3 O1,CC1=NN(c2ccccc2)C(=O)C21N=C2c1ccccc1,5.89697925
616,ALUTOQ,C15 H16 Br1 N1 Se1,Brc1ccc(C=CC=CC(=[Se])N2CCCC2)cc1,4.706481160000001
617,AMADID,C15 H7 F5 N2 S2,Fc1c(F)c(F)c(NN=CC2=CC=C(S2)C2=CC=CS2)c(F)c1F,5.55493214
618,AMADUP,C24 H28 Br1 N1 O8,COc1ccc2c(CN3CCC45OCC2(CO)C3C4=CC(=O)C(OC)(OC(C)=O)C5Br)c1OC,6.4104580900000006
619,AMAQAH,C14 H11 Cl2 N3 S1,Clc1cccc(Cl)c1C=NNC(=S)Nc1ccccc1,5.6501719900000005
620,AMAYOE,C17 H17 N5 O2,CCN1C=C(C(=O)NN=CC2=CC=CN2)C(=O)c2ccc(C)nc12,5.1595507199999995
621,AMBNZA04,C7 H7 N1 O2,[NH3+]c1cccc(c1)C(=O)[O-],5.03437834
622,AMBZAC,C14 H11 N1 O3,Nc1ccccc1C(=O)c1ccccc1C(O)=O,6.14705189
623,AMDPIM,C11 H10 N4,CC1=CC=CN2C1=Nc1ccc(N)nc21,5.89806771
624,AMEBOJ,C18 H13 Cl1 N2 O1 S1,Clc1ccc(cc1)C(=O)NC(=S)Nc1cccc2ccccc12,6.104057899999999
625,AMEBUP,C18 H15 Cl1 N2 O2,Cc1ccc(NC2=C(Cl)C(=O)N(C2=O)c2ccc(C)cc2)cc1,5.87276112
626,AMEJAE,C23 H19 N5,CC(=NN=C1CC2=C(Nc3ccccc23)c2ccccc2N1)c1ccccn1,5.94487129
627,AMEMUB,C18 H16 N2 S2,CC1=NN(C(=S)SCc2ccccc2)C(=C1)c1ccccc1,6.312769210000001
628,AMENIQ,C20 H18 N2 O1,CN1c2ccccc2C(C)(C)C1=CC(=O)c1ccc(cc1)C#N,5.68282566
629,AMENOW,C19 H18 Cl1 N1 O1,CN1c2ccccc2C(C)(C)C1=CC(=O)c1ccc(Cl)cc1,5.9884095
630,AMEPOS,C1 H6 N1 O3 P1,[NH3+]CP(O)(=O)[O-],6.65318364
631,AMEZOH,C24 H21 N3 O1,COc1ccc2N(C)c3c(C)c4ccnc(c5ccc(C)cn5)c4cc3c2c1,5.3494861899999995
632,AMEZUN,C25 H21 N3 O2,CN1c2ccc(OC(C)=O)cc2c2cc3c(ccnc3c3ccc(C)cn3)c(C)c12,5.5304418900000005
633,AMICET10,C29 H42 N6 O9,CC1OC(CCC1OC1OC(C)C(C(O)C1O)N(C)C)N1C=CC(=NC1=O)NC(=O)c1ccc(NC(=O)C(C)(N)CO)cc1,6.3320893
634,AMIDIL,C21 H21 N3 O2,COc1ccc(C=CC=NC2=C(C)N(C)N(c3ccccc3)C2=O)cc1,5.65507004
635,AMIKUD,C23 H18 N6 O1,CN(C)C1=CC=C(c2cc(nc(c2)c2ccccn2)c2ccccn2)C2=NON=C12,5.17805446
636,AMIPOD,C15 H9 N3 S1,N#CC(=Cc1cccnc1)C1=Nc2ccccc2S1,5.77724916
637,AMITOG,C19 H17 N1 O5,COC1Oc2ccccc2C(=O)C1=CNc1ccc2OCCOc2c1,6.01317186
638,AMIWUQ,C17 H19 B1 F2 N4,CC(C)(C)C1=NN(c2ccccc2)[B-](F)(F)[N+](=N1)c1ccccc1,5.115740390000001
639,AMIXAX,C20 H12 B1 F7 N4,Cc1ccc(cc1)C1=NN(c2c(F)c(F)c(F)c(F)c2F)[B-](F)(F)[N+](=N1)c1ccccc1,4.6202210599999995
640,AMIXOL,C20 H22 B1 F2 N5,Cc1cc(C)c(N2N=C(N=[N+](c3c(C)cc(C)cc3C)[B-]2(F)F)C#N)c(C)c1,5.652893129999999
641,AMIXUP,C32 H18,c1ccc(cc1)C#Cc1ccccc1C#CC#Cc1ccccc1C#Cc1ccccc1,5.7250033
642,AMIZIF,C20 H19 N1 O5,COc1ccc2C=C3N(CCc4cc5OCOc5cc34)C(O)c2c1OC,5.72718022
643,AMIZOL,C19 H13 N1 O5,O=C1N2CCc3cc4OCOc4cc3C2=Cc2ccc3OCOc3c12,5.72173793
644,AMIZUR,C20 H17 N1 O5,COc1ccc2C=C3N(CCc4cc5OCOc5cc34)C(=O)c2c1OC,5.8074538
645,AMMVTZ,C8 H12 N2 S2,CN(C)C1=NC(=S)SC1(C)C=C,5.430304
646,AMNAPH,C16 H21 N3 O3,CC1CC2CC(C)C(=O)N(O)C2([N+](=C1N)[O-])c1ccccc1,6.73209666
647,AMNNPQ10,C10 H7 N1 O2,NC1=CC(=O)c2ccccc2C1=O,5.78269144
648,AMODAJ,C26 H12 O5,O=C1c2ccccc2C(=O)C1=C1c2ccccc2C(=O)C21C(=O)c1ccccc1C2=O,6.131813510000001
649,AMONIB,C30 H18 O2,O=C(c1ccccc1)c1ccc2ccc3ccc(C(=O)c4ccccc4)c4ccc1c2c34,5.548129299999999
650,AMONOH01,C37 H22 O3,O=C(c1ccccc1)c1ccc2ccc3c(cc(C(=O)c4ccccc4)c4ccc1c2c34)C(=O)c1ccccc1,5.20526584
651,AMONUN,C44 H26 O4,O=C(c1ccccc1)c1cc(C(=O)c2ccccc2)c2ccc3c(cc(C(=O)c4ccccc4)c4ccc1c2c34)C(=O)c1ccccc1,5.02349379
652,AMSMPI,C5 H8 N4 S1,Cc1nc(N)nc(S)c1N,6.0183420299999995
653,AMTBUA,C8 H16 N2 O4 S2,[NH3+]C(CCSSCCC([NH3+])C(=O)[O-])C(=O)[O-],7.0393132000000005
654,AMTETA,C4 H5 N1 O2,[NH3+]CC#CC(=O)[O-],4.98866322
655,AMTPYD,C12 H12 O2 S2,CC1=CSC2C3SC(C1C2=O)C(=CC3=O)C,6.31521824
656,AMUBOB,C30 H18 O2,O=C(c1ccccc1)c1cc(C(=O)c2ccccc2)c2ccc3cccc4ccc1c2c34,5.41180026
657,AMUBUH,C30 H18 O2,O=C(c1ccccc1)c1ccc2ccc3c(ccc4ccc1c2c34)C(=O)c1ccccc1,5.32200268
658,AMUCIW,C10 H6 N2 O1 S1,O=CC1=CN2C(=Nc3ccccc23)S1,6.10705115
659,AMUHEW,C34 H44 N2 S2,CCCCCCCCC1=CSC(=C1)c1ccc(nc1)c1ccc(cn1)C1=CC(=CS1)CCCCCCCC,5.6798324000000004
660,AMUHOG,C54 H38 N4 S2,S1C(=CC=C1c1ccc(nc1)c1ccc(cn1)C1=CC=C(S1)c1ccc(cc1)N(c1ccccc1)c1ccccc1)c1ccc(cc1)N(c1ccccc1)c1ccccc1,4.88961378
661,AMUKOK,C16 H13 N1 O4 S1,CCOC(=O)C=CC1=C2c3ccccc3OC(=O)C2=C(N)S1,5.537788969999999
662,AMUMIG,C12 H14 N4 O2,CCN1C=C(C(=O)NN)C(=O)c2ccc(C)nc12,6.01453244
663,AMUPEF,C15 H16 N4 S1,CCNC(=S)NN=C(c1ccccc1)c1ccccn1,5.41941945
664,AMUTAF,C30 H16 Cl4 N2,Clc1ccc(C=Cc2c3ccccc3nc3c4ccccc4nc(c4ccc(Cl)cc4Cl)c23)c(Cl)c1,5.59683767
665,AMUYIS,C19 H17 N1 O6,CCOC(=O)c1cc2c3ccccc3OC(=O)c2c(N)c1C(=O)OCC,5.943782840000001
666,AMXPRI10,C14 H14 N2 O3,COc1c(C)c(OC)c2N3C=CC=C3C(=O)c2c1N,5.79929039
667,AMYTZL,C27 H27 Cl1 N2 O2 S2,CCN(CC)C1=NC(SC1(C)S(=O)(=O)c1ccc(Cl)cc1)=C(c1ccccc1)c1ccccc1,5.75765696
668,AMZNON10,C14 H20 N2 O2,CC(=O)C1=CC(C)(C)N2N1C(C)(C)C=C(C)C2=O,6.58787633
669,ANACMO,C25 H18 Cl3 N3 O4,COc1cc(NC(=O)c2cc3ccccc3c(N=Nc3cc(Cl)ccc3Cl)c2O)c(OC)cc1Cl,4.645255540000001
670,ANAGUT,C22 H23 N3 O4,CCN(CC)c1ccc2C=C(C=NNC(=O)c3ccc(OC)cc3)C(=O)Oc2c1,5.2800971500000005
671,ANAPOW,C18 H14 Cl1 F3 O3,COc1ccc(cc1OC)C(=O)C=Cc1cc(ccc1Cl)C(F)(F)F,5.79330388
672,ANBSTK,C32 H22 O2,O=C(C=Cc1ccccc1)c1c2ccccc2c(C(=O)C=Cc2ccccc2)c2ccccc12,5.4292155399999995
673,ANEDEE,C32 H28 O8,CCOC(=O)c1ccc2c3ccc(C(=O)OCC)c4c(ccc(c5ccc(C(=O)OCC)c1c25)c34)C(=O)OCC,4.61477879
674,ANETUK,C40 H38 N4,Cc1cc(C)c(c(C)c1)C1=C2C=CC(=N2)C=CC2=CC=C(N2)C(=C2C=CC(=N2)CCC2=CC=C1N2)c1c(C)cc(C)cc1C,4.06157134
675,ANEVOG,C39 H32 N2 O1,Cc1ccc(cc1)C=C1C(=O)C2(Cc3ccccc13)C(c1ccc(C)cc1)C(=NN2c1ccccc1)c1ccccc1,4.85968126
676,ANEWUM,C25 H20 O2,COc1ccc(OC)c2C3CC(c4cc5cc6ccccc6cc5cc34)c12,5.66649883
677,ANIHUC,C9 H15 N1 O4,OC(=O)CC([NH+]1CCCCC1)C(=O)[O-],7.449660880000001
678,ANIKEP,C17 H22 Br1 N1 O2,CCCCCCCCCN1C(=O)C(=O)c2cc(Br)ccc12,5.82731811
679,ANISAC,C6 H7 N1 O3 S1,[NH3+]c1cccc(c1)S(=O)(=O)[O-],5.530986129999999
680,ANIVUP,C18 H17 N1 O4,CCCOc1ccc(cc1)N=C1OCc2cccc(C(O)=O)c12,5.85616218
681,ANIWAW,C22 H20 N2 O4 S2,CCOC(=O)C1=C(C)N=C2SC(=Cc3ccc(OC)cc3)C(=O)N2C1C1=CC=CS1,5.60364052
682,ANIXUR,C20 H20 O5,COc1cc2CC(=Cc3ccc(OC)c(OC)c3)C(=O)c2c(OC)c1,6.013171870000001
683,ANIZON,C25 H30 O2,CCCC(CCC)(CCC)OC(=O)c1c2ccccc2cc2ccccc12,5.47057685
684,ANIZUT,C22 H24 O2,CCC(CC)(CC)OC(=O)c1c2ccccc2cc2ccccc12,5.4705768599999995
685,ANNULE10,C16 H16,C1=CC=CC=CC=CC=CC=CC=CC=C1,4.95356054
686,ANOBAH,C22 H22 O2,CC1(CCCCC1)OC(=O)c1c2ccccc2cc2ccccc12,5.4999651499999995
687,ANOBEL,C31 H42 O2,CCCCCCCCCCCCCCCCOC(=O)c1c2ccccc2cc2ccccc12,5.52119003
688,ANOBIP,C25 H24 O2,O=C(OC12CC3CC(CC(C3)C1)C2)c1c2ccccc2cc2ccccc12,5.48091717
689,ANOBOV,C21 H20 O2,O=C(OC1CCCCC1)c1c2ccccc2cc2ccccc12,5.50105361
690,ANOCIQ,C19 H18 O2,CCCCOC(=O)c1c2ccccc2cc2ccccc12,5.5424149
691,ANOCOW,C18 H16 O2,CCCOC(=O)c1c2ccccc2cc2ccccc12,5.50431897
692,ANOCUC,C20 H20 O2,CCCCCOC(=O)c1c2ccccc2cc2ccccc12,5.47574702
693,ANODUD,C20 H16 Br1 N1 O1,CC(C)(Br)C(=O)Nc1ccc2ccc3cccc4ccc1c2c34,5.69697557
694,ANONUO,C14 H13 N1 O1,O=C1Nc2ccccc2C1=CC1=CCCC1,5.69643134
695,ANOQOL,C33 H32 N2 O10 S1,COC(=O)C1CC2C3C(=C(C(=O)OC)C43N(CCC3=C4N(c4ccccc34)S(=O)(=O)c3ccc(C)cc3)C12C(=O)OC)C(=O)OC,5.952218370000001
696,ANOTIH,C16 H12 N2 O1,O=C(Nc1ccccc1)C(=Cc1ccccc1)C#N,5.95738852
697,ANOWAD,C40 H29 B1 N2 O2,CN([N+]1=C(c2ccccc2)c2ccccc2[B-]21Oc1ccc3ccccc3c1c1c(O2)ccc2ccccc12)c1ccccc1,4.8403611699999995
698,ANOWUW,C24 H23 Br1 N2 O6,COC(=O)C1=C(C(=O)OC)C2=C(O1)c1cc(Br)ccc1C(O)C(N2C(C)C)c1ccccn1,6.0003825200000005
699,ANOXAD,C24 H23 Br1 N2 O6,COC(=O)C1=C(C(=O)OC)C2=C(O1)c1ccc(Br)cc1C(O)C(N2C(C)C)c1ccccn1,5.95385105
700,ANPHPR01,C15 H14 N2,N(C=CC=Nc1ccccc1)c1ccccc1,5.93425885
701,ANSMAL01,C11 H11 N1 O4,COc1ccc(NC(=O)C=CC(O)=O)cc1,5.86731884
702,ANTCEN17,C14 H10,c1ccc2cc3ccccc3cc2c1,4.936145250000001
703,ANTHON10,C22 H10 O2,O=C1c2cccc3C=CC4=C(c23)c2c1ccc1cccc(C4=O)c21,4.988663219999999
704,ANTHQB,C28 H18 O4,O=C(Oc1c2ccccc2c(OC(=O)c2ccccc2)c2ccccc12)c1ccccc1,5.286083659999999
705,ANTMEU01,C32 H24,C1Cc2c3ccccc3c(CCc3c4ccccc4c1c1ccccc31)c1ccccc21,4.74240019