,ID,formula,smiles,HOMO_LUMO_gap
3753,COGPEW,C23 H12 N2 S3,N#Cc1ccc(cc1)N1C2=C(SC3=C1Sc1ccccc31)c1ccccc1S2,5.097236649999999
3754,COGPUL,C16 H14 O4,COc1cc(ccc1O)C=CC(=O)c1ccc(O)cc1,5.98487203
3755,COGTIB,C18 H4 N8 S2,N#CC(C#N)=C1C=CC(=C2C=CC(C3=NSN=C23)=C(C#N)C#N)C2=NSN=C12,3.73938854
3756,COGTUP,C32 H23 N1,c1ccc(cc1)C(N1c2ccccc2c2ccccc12)=C(c1ccccc1)c1ccccc1,5.81017494
3757,COGVAX,C38 H35 N1,CCCCCCN1c2ccccc2c2cc(ccc12)C(c1ccccc1)=C(c1ccccc1)c1ccccc1,5.85752275
3758,COGVEB,C38 H29 N1,c1ccc(cc1)N(c1ccccc1)c1ccc(cc1)C(c1ccccc1)=C(c1ccccc1)c1ccccc1,5.94459918
3759,COGWAW,C23 H24 O2,CCCCC(=C(O)C=Cc1ccccc1)C(=O)C=Cc1ccccc1,5.4401000999999995
3760,COGWUT,C34 H18,c1ccc2c(c1)c1cccc3c4cccc5c6ccccc6c6c7ccccc7c2c(c13)c6c45,5.000091999999999
3761,COHGUE,C28 H36 N2 O6 P2,CC12CC3(C)OC(C)(CC(C)(O1)P3c1nc3ccccc3nc1P1C3(C)CC4(C)OC(C)(CC1(C)O4)O3)O2,5.6401037800000005
3762,COHHUF,C28 H36 N2 O6 P2,CC12CC3(C)OC(C)(CC(C)(O1)P3c1nc3ccccc3nc1P1C3(C)CC4(C)OC(C)(CC1(C)O4)O3)O2,5.52363905
3763,COHKES,C31 H21 Cl1 N2 O2,Cc1ccc(cc1)C1=C2N=C(N=C(O)c3ccccc3)C(=C2c2ccccc2O1)c1ccc(Cl)cc1,5.143496000000001
3764,COHKUF,C36 H42 O2,CC(C)(C)c1cc2Oc3c4c5c(Oc6c4c2c(c1)cc6C(C)(C)C)cc(cc5cc3C(C)(C)C)C(C)(C)C,5.4343857
3765,COHRAV,C29 H18 O2,O=C1OC(c2ccccc12)=C1c2ccccc2C(=C1c1ccccc1)c1ccccc1,4.9394106099999995
3766,COHRIC,C28 H31 F3 N4 O6,CCC1=CC2=C(C(=O)N1CC(=O)c1ccccc1)C(=C(N2C)C(=O)NC1CCN(CC1)C(=O)CO)OCC(F)(F)F,5.90840804
3767,COHSEA,C34 H32 N2 O4 S4,CCCCCCN1C(=O)C2=C(C=C(S2)C2=CC=C(S2)C#CC2=CC=C(S2)C2=CC3=C(S2)C(=O)N(CCCCCC)C3=O)C1=O,5.2338378
3768,COHTUR,C19 H15 Cl6 N1 O4,COc1ccc(CCN2C(=O)C3C(C2=O)C2(Cl)C(=C(Cl)C3(Cl)C2(Cl)Cl)Cl)cc1OC,6.5443381
3769,COHYOP,C20 H19 N1 O4,COc1cc2CCC(=O)C3=C(c4ccccc4N3)c2c(OC)c1OC,5.80582111
3770,COHYUV,C21 H21 N1 O4,COc1cc2CCC(=O)C3=C(c4ccccc4N3C)c2c(OC)c1OC,5.92500698
3771,COHZUV,C33 H25 N3,C1Cc2ccccc2N=C2c3cccc4cccc(C2=Nc2ccccc2CCc2cccc1n2)c34,6.14977302
3772,COJGUE,C37 H30 Br1 N1 O3,COC(=O)C(OCc1c2ccccc2cc2ccccc12)(C(Nc1ccccc1)c1ccccc1)c1cccc(Br)c1,5.47629124
3773,COJJIV,C52 H30 N4,c1ccc(cc1)c1cc2nc3c4cccc5c6nc7cc(c8ccccc8)c(cc7nc6c6cccc(c3nc2cc1c1ccccc1)c6c45)c1ccccc1,5.37833025
3774,COJJOB,C13 H6 F3 I2 N1 O1,Fc1c(I)c(F)c(C=Cc2cc[n+]([O-])cc2)c(F)c1I,5.37179952
3775,COJJUI,C43 H39 N1 O6,CCCN1C(=O)c2c3CCc4cc(c(OC)cc4c3c3c(CCc4cc(c(OC)cc34)c3ccc(OC)cc3)c2C1=O)c1ccc(OC)cc1,5.1304345399999995
3776,COJKAP,C37 H31 N1 O4 S2,CCCN1C(=O)c2c3CCc4cc(c(OC)cc4c3c3c(CCc4cc(c(OC)cc34)C3=CSC=C3)c2C1=O)C1=CSC=C1,5.11574039
3777,COJKET,C41 H33 Cl2 N1 O4,CCCN1C(=O)c2c3CCc4cc(c(OC)cc4c3c3c(CCc4cc(c(OC)cc34)c3ccc(Cl)cc3)c2C1=O)c1ccc(Cl)cc1,5.26948472
3778,COJLAO01,C9 H10 N4 O1 S1,CCC1=NNC(=S)N1N=CC1=CC=CO1,6.1002483000000005
3779,COJLES,C10 H12 N4 O1 S1,CCCC1=NNC(=S)N1N=CC1=CC=CO1,6.0694994300000005
3780,COJLIW,C11 H13 N5 S1,CCC1=NNC(=S)N1N=C(C)c1ccccn1,5.66513825
3781,COJLUK,C8 H7 F1 N2 O3,CCOC1=CC(=CC2=[N+]([O-])ON=C12)F,5.59438865
3782,COJMAR,C6 H3 F1 N2 O2,FC1=CC=CC2=[N+]([O-])ON=C12,5.66921996
3783,COJNEX,C16 H16 Br1 N3 O2,CCOC(=O)c1ccc(N=NN(C)c2ccccc2)c(Br)c1,5.79929039
3784,COJPEZ,C21 H16 Cl1 N1 O3 S1,Clc1ccccc1C=CC(=O)c1ccccc1NS(=O)(=O)c1ccccc1,6.112765530000001
3785,COJPUO,C24 H22 N2 O2,COc1ccc(cc1)C(C1=CC=CN1)=C(C1=CC=CN1)c1ccc(OC)cc1,5.61697411
3786,COJQAV,C24 H22 N2,Cc1ccc(cc1)C(C1=CC=CN1)=C(C1=CC=CN1)c1ccc(C)cc1,5.53533995
3787,COJWAC,C36 H30 Cl2 N2 O2,OC12N3CC(=Cc4ccc(Cl)cc4)C(=O)C4(C3)C(C3CCCCN3C14c1cccc3cccc2c13)c1ccc(Cl)cc1,6.3503209300000005
3788,COJYOS,C29 H25 N1,Cc1cc(C)c(Nc2c3ccccc3c(c3ccccc3)c3ccccc23)c(C)c1,4.99873143
3789,COKFIU,C32 H20 S3,S1C(=CC=C1C1=CC=C(S1)c1cccc2ccccc12)C1=CC=C(S1)c1cccc2ccccc12,5.21587828
3790,COKFOA,C22 H14 S3,S1C=CC=C1C1=CC=C(S1)C1=CC=C(S1)c1cccc2ccccc12,5.30594797
3791,COKLOF,C15 H8 B1 F2 N3 O1,F[B-]1(F)N2C(=O)c3ccccc3C2=C(C#N)c2cccc[n+]12,5.719288910000001
3792,COKLUL,C19 H10 B1 F2 N3 O1,F[B-]1(F)N2C(=O)c3cc4ccccc4cc3C2=C(C#N)c2cccc[n+]12,5.50486319
3793,COKQEZ,C21 H19 N1 O4,COC(=O)N1C=Cc2ccccc2C1CC(=O)C=C(O)c1ccccc1,5.74350704
3794,COKQOL,C9 H9 B1 F2 N4,N[NH+]=C1C2=CC=CN2[B-](F)(F)N2C=CC=C12,5.85180836
3795,COKQUR,C15 H13 B1 F2 N4,F[B-]1(F)N2C=CC=C2C(=[NH+]Cc2ccccn2)C2=CC=CN12,5.77670493
3796,COKSED,C31 H24 Br2 N2 O2,Brc1ccc(cc1)C(=O)CC(C(=O)c1ccc(Br)cc1)c1ccc(NCc2ccccc2)c2C=CNc12,5.4047253
3797,COKVII,C22 H20 O4,CC(C)OC1=CC(=O)c2ccc3C(=CC(=O)c4ccc1c2c34)OC(C)C,5.04907249
3798,COKVOO,C22 H20 O4,CC(C)OC1=CC(=O)c2ccc3C(=O)C=C(OC(C)C)c4ccc1c2c34,4.9941055
3799,COKYEH,C33 H32 N2 O1,CN1c2ccc3ccccc3c2C(C)(C)C1=CC(=O)C=C1N(C)c2ccc3ccccc3c2C1(C)C,5.4713932
3800,COKYIN,C35 H25 B1 F2 N2,F[B-]1(F)N2C=CC=C2C(=C2C=CC=[N+]12)c1ccc(cc1)C(c1ccccc1)=C(c1ccccc1)c1ccccc1,4.88281094
3801,COKYUX,C17 H17 I1 N4 O4,CN1C(=C(C(=O)N(C)C1=O)C1=C(N(C)C(=O)N1C)c1ccc(I)cc1)O,6.15929701
3802,COKZEH,C31 H23 N1 O5,Cc1ccc(NC(=O)C(c2ccccc2)=C2C(=O)C(=O)OC2(Oc2ccccc2)c2ccccc2)cc1,5.56636092
3803,COLBAJ,C29 H23 N3 O2,CCc1c(C)c2C(=NN(c3ccccc3)c2nc1C1=Cc2c(OC1=O)ccc1ccccc21)C,5.78133086
3804,COLDEM,C16 H10,C1=CC2=C3C(=CC4=C3C(=C2)C=CC=C4)C=C1,4.93696159
3805,COLDOY,C30 H28 F4 N6 O2,FC1=C(F)C(=C(C#N)C#N)C(F)(ON2C3CC4CC(C3)CC2C4)C(F)(ON2C3CC4CC(C3)CC2C4)C1=C(C#N)C#N,5.075739650000001
3806,COLGAO,C9 H11 N1 O3 S1,CC1=CC(=O)C=C(C)C1=NS(C)(=O)=O,6.412907110000001
3807,COLGES,C15 H15 N1 O3 S1,COc1ccc(cc1)S(=O)N=C1C(=CC(=O)C=C1C)C,5.4398279899999995
3808,COLGIW,C15 H15 N1 O1 S1,Cc1ccc(SN=C2C(=CC(=O)C=C2C)C)cc1,5.1571017
3809,COLHIW,C11 H8 B1 F5 N2 S1,CSC1=C2C=CC=[N+]2[B-](F)(F)N2C1=CC=C2C(F)(F)F,5.1304345399999995
3810,COLNEZ,C23 H28 N2 O5,COC(=O)C12COC(N1C(=O)C1(Cc3ccccc3N3CCCC13)C2=O)C(C)(C)C,6.14433074
3811,COLNOJ,C25 H32 N2 O6,COC(=O)C12COC(N1C(=O)C1(Cc3ccccc3N3CC(C)OC(C)C13)C2=O)C(C)(C)C,6.33753158
3812,COLQEB,C29 H21 N3 S3,CC1=C(N=C(S1)c1ccccc1)C1=C(N=C(S1)c1ccccc1)C1=C(C)N=C(S1)c1ccccc1,5.88473413
3813,COLQUQ,C30 H27 N3 O3,CCCCCOc1ccc(cc1)c1ccc(cc1)c1ccc(cc1)C(=O)ON1N=Nc2ccccc12,5.82296428
3814,COLRIF,C11 H15 N1 O4 S1,CC1=C(O)C(=S)C=CN1C1CC(O)C(CO)O1,5.67711126
3815,COLRON,C45 H32 N2 O3 S1,O=C1c2ccccc2S(=O)(=O)C(=C1c1ccc(cc1)N(c1ccccc1)c1ccccc1)c1ccc(cc1)N(c1ccccc1)c1ccccc1,4.76879523
3816,COLVUU,C19 H10 Cl2 N2 O2,Clc1ccc2OC34Oc5ccc(Cl)cc5N=C3C=CC=CC4=Nc2c1,5.444726039999999
3817,COLVUX,C17 H27 O1 P1 S2,CC(SC(=S)P(=O)(C(C)(C)C)C(C)(C)C)c1ccccc1,5.93834056
3818,COLWAD,C12 H17 N1 O2,CC(C)C([NH2+]Cc1ccccc1)C(=O)[O-],7.01482295
3819,COLWAE,C17 H27 P1 S3,CC(SC(=S)P(=S)(C(C)(C)C)C(C)(C)C)c1ccccc1,5.40499741
3820,COLWEI,C17 H27 P1 S2 Se1,CC(SC(=S)P(=[Se])(C(C)(C)C)C(C)(C)C)c1ccccc1,5.00934388
3821,COLXOS,C11 H10 B1 Br1 F2 N2,CC1=[N+]2C(=CC3=CC=C(Br)N3[B-]2(F)F)C(=C1)C,4.717637829999999
3822,COLXUY,C11 H10 B1 F2 I1 N2,CC1=[N+]2C(=CC3=CC(=CN3[B-]2(F)F)I)C(=C1)C,4.70620904
3823,COMBOX,C28 H24 N2 O1,Oc1ccccc1CN(Cc1ccccn1)Cc1c2ccccc2cc2ccccc12,5.46513457
3824,COMDIU,C14 H6 Br4,Brc1cc2cc3cc(Br)c(Br)cc3cc2cc1Br,5.27982504
3825,COMFAL,C20 H18 O5,CCOC(=O)C1=C(CC)c2ccc3cc(OC)ccc3c2C(=O)C1=O,5.18023137
3826,COMJAP,C22 H28 N6 O8,CCN(CC)C1=NC2=C(NN=C(C2C2=C(NN=C(C2C1)C(=O)OC)C(=O)OC)C(=O)OC)C(=O)OC,5.64581818
3827,COMJUJ,C21 H21 N3,C1CCC(=NNc2ccccc2)C(C1)c1ccc2ccccc2n1,6.01480455
3828,COMKOE,C13 H24 N2 S2,CCN(CC)CCNC1=C(CCC1)C(=S)SC,5.91874836
3829,COMPEB,C17 H24 N2 O8 S1,COC(=O)C(=C1SC(OC)(C(=O)OC)[C-](C(=O)OC)C1=O)C(N(C)C)=[N+](C)C,5.107849089999999
3830,COMRII,C25 H23 N1 O3,O=C(C=Cc1ccc(cc1)N1CCOCC1)c1ccc(Oc2ccccc2)cc1,5.71439086
3831,COMSUV,C28 H26 Cl2 N2 O5,CCOC(=O)C1=C(N(c2ccc(Cl)cc2)C(O)(C1Nc1ccc(Cl)cc1)c1ccccc1)C(=O)OCC,6.17535173
3832,COMWUZ,C32 H38 S4,CCCCCCCSc1c2Sc3ccccc3c2c(SCCCCCCC)c2Sc3ccccc3c12,5.73316672
3833,COMXAG,C34 H42 S4,CCCCCCCCSc1c2Sc3ccccc3c2c(SCCCCCCCC)c2Sc3ccccc3c12,5.722826390000001
3834,COMXEK,C36 H46 S4,CCCCCCCCCSc1c2Sc3ccccc3c2c(SCCCCCCCCC)c2Sc3ccccc3c12,5.6496277599999996
3835,COMXIO,C38 H50 S4,CCCCCCCCCCSc1c2Sc3ccccc3c2c(SCCCCCCCCCC)c2Sc3ccccc3c12,5.72092159
3836,COMYEK,C20 H19 N3 O1,CN1N(c2ccccc2)C(=O)C(=C1C)N=CC=Cc1ccccc1,5.34948619
3837,CONBEP,C20 H18 F3 N1 O2,FC(F)(F)c1ccc(cc1)C(=O)C=Cc1ccc(cc1)N1CCOCC1,5.45044042
3838,CONCYT,C20 H26 O6,CC(C)C1=C(O)C(=O)C2=C(C(O)CC3C4(C)CCCC23C(O)OC4)C1=O,6.0890916299999995
3839,CONJOF,C38 H48 N2 O8,CCCCOc1ccc(C=O)cc1C(=O)Nc1cc(NC(=O)c2cc(C=O)ccc2OCCCC)c(OCC(C)C)cc1OCC(C)C,5.96283081
3840,CONJUK,C27 H29 N3 O3,COc1ccccc1N1CCN(CC1)CCc1ccccc1NC1OC(=O)c2ccccc12,6.1984813999999995
3841,CONJUL,C36 H50 N4 O6,CCCCOc1ccc(N)cc1C(=O)Nc1cc(NC(=O)c2cc(N)ccc2OCCCC)c(OCC(C)C)cc1OCC(C)C,6.1454192
3842,CONNUP,C20 H26 O3,CC1CC2C(CCC3(C)OC41C(=O)C=C(C)C(=O)C4=C3)C2(C)C,6.437397359999999
3843,CONPEB,C19 H16 O2,Cc1cccc(c1)C=C1OC(=O)C(=C1)Cc1ccccc1,5.79711347
3844,CONPIF,C18 H13 Br1 O2,Brc1cccc(c1)C=C1OC(=O)C(=C1)Cc1ccccc1,5.78514046
3845,CONPOL,C20 H18 Cl1 N1 O2,CN(C)c1ccc(C=C2OC(=O)C(=C2)Cc2ccccc2)c(Cl)c1,5.20390528
3846,CONPUR,C18 H14 O3,Oc1cccc(c1)C=C1OC(=O)C(=C1)Cc1ccccc1,5.736976309999999
3847,CONQAY,C18 H14 O3,Oc1ccccc1C=C1OC(=O)C(=C1)Cc1ccccc1,5.60881068
3848,CONROP,C36 H27 Br1 N2 O4,CCc1ccc(cc1)C1N2c3ccccc3N=C3c4ccccc4C(=O)C(=C23)C2c3cc(Br)ccc3OCC12C(=O)OC,4.97478542
3849,CONRUV,C31 H24 N2 O6,CCOC(=O)C1C2c3ccccc3OC1(N1c3ccccc3N=C3c4ccccc4C(=O)C2=C13)C(=O)OCC,4.953016310000001
3850,CONYOW,C30 H46 P2,CC(C)c1cc(C(C)C)c(P=Pc2c(cc(cc2C(C)C)C(C)C)C(C)C)c(c1)C(C)C,5.60690589
3851,CONZOU10,C17 H14 O5,COc1ccc2c(ccc3C(=O)C=C(OC)C(=O)c23)c1OC,5.21941577
3852,CONZUA10,C17 H14 O5,COc1ccc(OC)c2c1ccc1C(=O)C=C(OC)C(=O)c21,5.09778088
3853,COPBAK10,C16 H12 O4,COC1=CC(=O)c2ccc3c(OC)cccc3c2C1=O,5.14131909
3854,COPBEO10,C16 H12 O5,COc1ccc(OC)c2c1c(O)cc1C(=O)C=CC(=O)c21,4.86076971
3855,COPCAL10,C23 H22 Br1 N3 O7,COC1=C(C)C(=O)C2=C(C(COC(N)=O)C3(OC)C4C(CN23)N4C(=O)c2ccc(Br)cc2)C1=O,5.420507899999999
3856,COPCOC,C36 H24 O2 S2,O=CC1=CC=C(S1)c1ccc(cc1)C(c1ccc(cc1)C1=CC=C(S1)C=O)=C(c1ccccc1)c1ccccc1,5.4264944
3857,COPGIA,C15 H14 N2 O3,CCOC(=O)C=CC1=CC=CC(=O)N1c1ccccn1,5.74405127
3858,COPKIB,C31 H34 O8,CC(C)C(=O)C1=C(O)C(C)(C)C(=C(Cc2c(O)cc(OCC=C(C)C)c(c2O)C(=O)c2ccccc2)C1=O)O,6.0882752899999995
3859,COPLAV01,C29 H40 N2 O1,CC(C)c1cccc(C(C)C)c1N=C(C)C(=O)C(C)=Nc1c(cccc1C(C)C)C(C)C,6.2104544100000005
3860,COPLUQ,C14 H12 O3 S1,OC(=O)c1ccccc1S(=O)Cc1ccccc1,6.21127076
3861,COPTUY,C26 H22 N2,Cc1ccc(NC2=C(Nc3ccc(C)cc3)c3cccc4cccc2c34)cc1,4.57913187
3862,COPZOZ,C26 H17 N1 O2,O=C1CC2(N3c4ccccc4C(=C3c3ccccc23)c2ccccc2)C(=O)C=C1,4.84036117
3863,COQBES,C15 H9 N3,c1ccc2nc3c(ccc4cnccc34)nc2c1,5.77697704
3864,COQBIV,C34 H27 N3 O2,COc1ccccc1C1=CC(=C(N1)N=C1N=C(C=C1c1ccccc1)c1ccccc1OC)c1ccccc1,3.86075131
3865,COQBOB,C30 H21 N5,N1C(=CC(=C1N=C1N=C(C=C1c1ccccc1)c1ccccn1)c1ccccc1)c1ccccn1,4.058850189999999
3866,COQBUH,C33 H25 N3 O2,COc1ccccc1C1=CC(=C(N1)N=C1N=C(C=C1c1ccccc1)c1ccccc1O)c1ccccc1,4.02728499
3867,COQCAO,C32 H24 N4 O1,COc1ccccc1C1=CC(=C(N1)N=C1N=C(C=C1c1ccccc1)c1ccccn1)c1ccccc1,3.9600728600000004
3868,COQCER,C25 H28 N2 O5,COc1cc(cc(OC)c1OC)C1=C(CNC1=O)C1=CN(COC(C)C)c2ccccc12,6.037934229999999
3869,COQCOB,C19 H18 N2 O3,COc1ccc(cc1)C(=O)CNC(=O)CC1=CNc2ccccc12,6.116847249999999
3870,COQCOC,C18 H16 F1 N1 O3,CCOC(=O)C(F)=C1Nc2ccccc2c2ccc(OC)cc12,5.04172543
3871,COQKEA,C32 H33 N5 O2 S1,CCCCN1C(=O)c2cccc3c(ccc(C1=O)c23)N1CCN(CC1)Cc1cccc(CSc2ccccn2)n1,5.7426907
3872,COQPAB,C35 H25 N1 O2 S2,CC1=C(C=C(S1)c1cccc2ccccc12)C1=C(C(=O)N(Cc2ccccc2)C1=O)C1=C(C)Sc2ccccc12,5.24445024
3873,COQQII,C18 H22 N4 O4,CCOc1ccc(NC(=O)C2=C(ON=C2C)N=CN2CCOCC2)cc1,6.16963733
3874,COQRUW,C13 H10 N2 O1 S1,CSC1=C(C#N)C(=O)NC(=C1)c1ccccc1,5.87575437
3875,COQSUZ,C27 H26 N2 O2 S1,CCCCCCN1c2ccccc2c2cc(ccc12)C=C(C#N)S(=O)(=O)c1ccccc1,5.69234963
3876,COQXOW,C22 H16 N2 O4 S2,C1COC2=C(SC=C2O1)c1cccc(n1)C1=C2OCCOC2=C(S1)c1ccccn1,5.71683989
3877,COQYUE,C26 H23 P1,Cc1cc(C)c(P=C(c2ccccc2)c2cccc3ccccc23)c(C)c1,5.908408039999999
3878,COQZAL,C30 H25 P1,Cc1cc(C)c(P=C(c2ccccc2)c2cc3ccccc3c3ccccc23)c(C)c1,5.76255501
3879,CORDAQ,C42 H26 B1 F2 N5 S2,F[B-]1(F)N2C(=Nc3ccc4cc(ccc4[n+]13)N1c3ccccc3Sc3ccccc13)C=Cc1cc(ccc21)N1c2ccccc2Sc2ccccc12,4.4506941399999995
3880,CORDEV,C31 H20 N2,Cc1ccc(cc1)c1cc2c3nccnc3c3ccc4ccccc4c3c2c2ccccc12,5.64609029
3881,CORDOF,C36 H24 N2 O1,COc1ccc2c(c1)c(cc1c3nc4ccccc4nc3c3ccc4ccccc4c3c21)c1ccc(C)cc1,4.96798257
3882,CORDUL,C24 H16 F1 N1,Cc1ccc(cc1)c1cc2cc3ccccc3nc2c2ccc(F)cc12,5.66513826
3883,CORFIZ,C14 H2 Br2 F5 O1 P1 S2,Fc1c(F)c(F)c(c(F)c1F)P1(=O)C2=C(SC(=C2)Br)C2=C1C=C(Br)S2,5.6888121599999995
3884,CORFOE10,C21 H12 O1,O=C1c2ccccc2c2cccc3cc4ccccc4c1c23,4.9372337
3885,CORGOF,C19 H16 B1 N1 O2,O[N+]1=Cc2ccccc2O[B-]1(c1ccccc1)c1ccccc1,5.95521162
3886,CORLON,C18 H15 N1 O5,CC1=CC(=C(OC1=O)c1c(O)c(C)cc2C(=O)C(=CC(=O)c12)N)C,4.98703053
3887,CORNAB,C16 H14 N4 O1,CC(=NNC(=O)Nc1ccccc1)c1ccc(cc1)C#N,5.9100407200000005
3888,COROSE10,C7 H12 O7,OCC(O)C1(O)OC(CO)C(=O)C1O,6.3388921400000005
3893,CORWOW,C17 H18 O2,CC1(C)CC(=O)C(=CC=Cc2ccccc2)C(=O)C1,5.6501719900000005
3894,CORXAI10,C34 H18,c1ccc2c(c1)cc1ccc3c4ccc5cccc6c7ccccc7c(c7ccc2c1c37)c4c56,4.37559072
3895,CORXOX,C29 H33 N3 O4,CC(C)(C)OC(=O)N=C(C(=O)N1C2CC3CCC2(C(=O)N1c1ccccc1)C3(C)C)c1ccccc1,6.30515003
3896,CORZIT01,C10 H8 N2 O1 S1,O=C1NC(=S)NC1=Cc1ccccc1,5.68282565
3897,COSBUJ,C42 H48 N2,CC(C)(C)c1ccc2cc(c3Nc4cc5Nc6c(c5cc4c3c2c1)c1cc(ccc1cc6C(C)(C)C)C(C)(C)C)C(C)(C)C,5.526904419999999
3898,COSFIZ,C10 H9 N5,CC1=NC2=CC=CC3=NC(=NC(=N1)N23)C,5.45561059
3899,COSHOH,C26 H34 N4 S4,CCN(CC)C(=S)N=C(SCCSC(=NC(=S)N(CC)CC)c1ccccc1)c1ccccc1,6.22950238
3900,COSJEZ,C8 H18 As2 N4 S2,CC(C)(C)[As]1N=S=N[As](N=S=N1)C(C)(C)C,5.77425591
3901,COSJUQ,C31 H35 N1 O2 S2,C1COCCSCCN(CCSCCO1)c1ccc(Cc2c3ccccc3cc3ccccc23)cc1,5.286083659999999
3902,COSJUS,C24 H11 N3 O2,O=C1Oc2ccc3ccccc3c2C(=C1C#N)C(c1ccccc1)=C(C#N)C#N,5.5511225500000005
3903,COSMAB,C26 H25 N5 O4,CN(C)c1ccc(cc1)C1=C(C#N)C(=NC21c1ccccc1OC(=C2C#N)N)OCCOCCO,5.4395558699999995
3905,COSMEF,C23 H19 N5 O2,COC1=NC2(c3ccccc3OC(=C2C#N)N)C(=C1C#N)c1ccc(cc1)N(C)C,5.66785939
3906,COSMIJ,C24 H21 N5 O2,CCOC1=NC2(c3ccccc3OC(=C2C#N)N)C(=C1C#N)c1ccc(cc1)N(C)C,5.521734260000001
3907,COSMOP,C29 H31 N5 O5,COCCOCCOCCOC1=NC2(c3ccccc3OC(=C2C#N)N)C(=C1C#N)c1ccc(cc1)N(C)C,5.48554311
3908,COSNAZ,C6 H12 N4,CN1N=C(C)N(C)N=C1C,5.87657072
3909,COSNII,C22 H16 N2,N1C(=Cc2cc3NC(=Cc3cc12)c1ccccc1)c1ccccc1,5.2191436499999995
3910,COSQAF,C40 H26 N4 O4,O=C1N(C(=O)c2cc(ccc12)c1ccc2C(=O)N(C(=O)c2c1)c1ccc(Nc2ccccc2)cc1)c1ccc(Nc2ccccc2)cc1,4.66321506
3911,COSQOS,C23 H28 N4 O5,COC(=O)CC(C(Cc1ccccc1)NC(=O)OC(C)(C)C)N1N=[N+]([O-])c2ccccc12,6.15222204
3912,COSQUY,C20 H30 N4 O5,COC(=O)CC(C(CC(C)C)NC(=O)OC(C)(C)C)N1N=[N+]([O-])c2ccccc12,6.08364936
3913,COSRAF,C25 H39 N5 O6,COC(=O)C(CC(C)C)NC(=O)CC(C(NC(=O)OC(C)(C)C)C(C)C)N1N=[N+]([O-])c2ccccc12,6.02215163
3914,COSREJ,C32 H44 N6 O7,COC(=O)C(C)NC(=O)CC(C(CC(C)C)NC(=O)C(Cc1ccccc1)NC(=O)OC(C)(C)C)N1N=[N+]([O-])c2ccccc12,6.18405937
3915,COSSIO,C39 H42 N10 O3,CC1=NN(C(=O)C1=CNCCN(CCNC=C1C(=NN(C1=O)c1ccccc1)C)CCNC=C1C(=NN(C1=O)c1ccccc1)C)c1ccccc1,5.68854005
3916,COSTIO,C28 H24 N2 O4,COc1cc(OC)c2c3N(C(=Cc13)C(=O)C(=O)N(C)C)C(=C2c1ccccc1)c1ccccc1,5.40907912
3917,COSTOU,C16 H16 N2 O4,COc1cc(OC)c2C=C(N3C=Cc1c23)C(=O)C(=O)N(C)C,5.797385589999999
3918,COSWAK,C17 H16 N4 O2 S1,CN1C(=NS(=O)(=O)c2ccc(C)cc2)C(=[N+]=[N-])c2cccc(C)c12,6.11956839
3919,COTBAQ,C22 H18 O5,COc1cccc(c1)C=C1OC2=C(C1CC(C)=O)C(=O)Oc1ccccc21,6.011267069999999
3920,COTBIY,C34 H34 Br1 N5 O5,COc1cc(ccc1NC1=NN2C(=CC=C2c2ccccc2OC)C=N1)C1CCN(CCOC(=O)c2ccc(Br)cc2)CC1O,5.688267929999999
3921,COTCAR,C25 H36 N2 O2,CCCCCCOc1ccc(cc1)N=Nc1ccc(OCCCCCC)c(C)c1,5.95902121
3922,COTCEV,C33 H52 N2 O2,CCCCCCCCCCOc1ccc(cc1)N=Nc1ccc(OCCCCCCCCCC)c(C)c1,5.8958908
3923,COTCIZ,C26 H38 N2 O2,CCCCCCOc1ccc(cc1C)N=Nc1ccc(OCCCCCC)c(C)c1,5.81398453
3924,COTCOE,C18 H14 F3 N1 O3,COC(=O)C1=CN(c2cccc(c2)C(F)(F)F)c2cc(C)ccc2O1,5.85561795
3925,COTCUJ,C38 H34 N2 O6,CN1c2ccccc2C(=O)c2c(O)c3C(CC(C)(C)Oc3cc12)c1c(O)c2C(=O)c3ccccc3N(C)c2c2C=CC(C)(C)Oc12,5.767725169999999
3926,COTCUK,C17 H12 F3 N1 O2 S1,COC(=O)C1=CN(c2cccc(c2)C(F)(F)F)c2ccccc2S1,5.55438792
3927,COTFUP,C30 H28 N6 O2,N#CC(=Cc1cc(N2CCOCC2)c(C=C(C#N)c2ccncc2)cc1N1CCOCC1)c1ccncc1,4.96553355
3928,COTGOJ,C18 H16 N4 O2 S1,Cc1ccc(cc1)S(=O)(=O)N=C1N(CC=C)c2ccccc2C1=[N+]=[N-],6.26514929
3929,COTHOK,C14 H12 Br1 N1 O3,Brc1ccc2N3CCOC4CCC(=O)C34C(=O)c2c1,5.93942901
3930,COTJAY,C15 H14 Br1 N1 O3,Brc1ccc2N3CCOC4CCCC(=O)C34C(=O)c2c1,5.87140055
3931,COTJOK,C27 H21 Cl3 N4,CC(C)N=C1C=C2N(c3ccc(Cl)cc3)c3ccc(Cl)cc3N=C2C=C1Nc1ccc(Cl)cc1,4.89043012
3932,COTJUQ,C27 H21 Cl3 N4,CC(C)N=C1C=C2N(c3ccc(Cl)cc3)c3cc(Cl)ccc3N=C2C=C1Nc1ccc(Cl)cc1,4.8109728700000005
3933,COTKAX,C27 H20 Cl4 N4,CC(C)N=C1C=C2N(c3ccc(Cl)cc3)c3c(Cl)cccc3N=C2C(=C1Nc1ccc(Cl)cc1)Cl,4.6912427800000005
3934,COTKIH,C20 H11 F3 N4,Fc1ccc(cc1)C1=CN(N=N1)C1=C2C=CC=CN2c2cc(F)c(F)cc12,5.46703937
3935,COTMIH,C18 H16 N2,Cc1cccc2c1Nc1c(C)c3ccncc3c(C)c21,5.8330325
3936,COTMUT,C19 H20 O8,COC12CC(=C(C(C)=O)C(=O)C1(C)c1c(O)c(C(C)=O)c(O)c(C)c1O2)O,6.2474619
3937,COTPAE,C24 H34 N2 O2,CCCCCCOc1ccc(cc1)N=Nc1ccc(OCCCCCC)cc1,5.8153451
3938,COTRIM,C11 H9 N3 O2,[O-][n+]1ccc(cc1)[N+]([O-])=Nc1ccccc1,5.621327919999999
3939,COTSUC,C17 H20 O8,COC(=O)C=CC1=C(CO)C(=C(COC(=O)C=C(C)C)C(=O)O1)OC,6.072220570000001
3940,COTWIR,C32 H24,CC12C=C(C=C(c3ccccc3)C1=C(c1ccccc1)c1ccccc21)c1ccccc1,5.50785645
3941,COVDIC,C23 H24 N2 O3 S1,CC(C)CC(N1C(=O)c2ccccc2C1=O)C(=O)N1C(C)CSc2ccccc12,5.99085854
3942,COVJEF,C6 H6 F2 N2 O2,CN1C=C[NH+]=C1C(F)(F)C(=O)[O-],6.59685608
3943,COVLII,C16 H11 N3 O1,O=C1N(N=C2C1=CNc1ccccc21)c1ccccc1,5.6109876
3944,COVLOO,C16 H10 Cl1 N3 O1,Clc1ccc(cc1)N1N=C2c3ccccc3NC=C2C1=O,5.58323199
3945,COVNAC,C19 H14 N2 O1,O=C1N2C=CC=CC2=NC1(c1ccccc1)c1ccccc1,6.10786749
3946,COVNEI,C18 H17 N3 O6 S1,OCC1OC(C(O)C1O)N1N=C(C(=O)NC1=O)C1=CC=C(S1)c1ccccc1,5.37805814
3947,COVSEM,C4 H1 N17,[N-]=[N+]=NC1=NN=CN1N=NN1C(=NN=C1N=[N+]=[N-])N=[N+]=[N-],6.223515880000001
3948,COVTUC,C12 H6 S3,S=C1SC(=S)c2cccc3cccc1c23,4.8498851599999995
3949,COVVAK,C19 H16 S3,S=C1SC2=C3C(C=Cc4cccc1c34)C1C3CCC(C3)C1S2,5.52309483
3950,COVWAO,C18 H16 O7,CC1Oc2c3c(C)c(O)c(O)c4C(=O)OC(=O)c(c(O)c2C1(C)C)c34,5.82160372
3951,COVXUH,C32 H24 O8,COc1ccc(cc1)C12C(=O)Oc3cc(OC)cc(C(=O)C(=C4C=CC(=O)C=C4)c4c(OC)cc(OC)cc14)c23,5.257511710000001
3952,COWDID,C12 H12 Br1 N3 O6 S1,OCC1OC(C(O)C1O)N1N=C(C(=O)NC1=O)C1=CC=C(Br)S1,5.81262396
3953,COWGUR,C16 H12 N4 S1,Cc1ccc(NN=C(C#N)C2=Nc3ccccc3S2)cc1,5.4607807500000005
3954,COWHAY,C16 H13 N5 S1,Cc1ccc(cc1)N1N=C(N)C(=N1)C1=Nc2ccccc2S1,5.93752422
3955,COWKAC,C24 H24 N2 O2,CCCCC1=C(C#N)c2c(C)c3C(=O)C(=C(C#N)c3c(C)c2C1=O)CCCC,4.93424045
3956,COWKEG,C30 H24 N6,CCCCC1=C(C#N)c2c(C)c3c(c(C)c2C1=C(C#N)C#N)C(=C(CCCC)C3=C(C#N)C#N)C#N,4.149192
3957,COWKIK,C25 H19 F3 N2 O2 S1,Cc1ccc(cc1)S(=O)(=O)N1C(CN=C1c1c2ccccc2cc2ccccc12)C(F)(F)F,5.417242529999999
3958,COWMAC,C18 H22 O2,CC1(C)CC(C)(C)C(=CC(O)=Cc2ccccc2)C1=O,5.60173573
3959,COWMOQ,C20 H16 O2 S2,CC12SC(C3SC1(C)C(=O)c1ccccc31)c1ccccc1C2=O,5.851264130000001
3960,COWNIN,C34 H20 N6 O2 S3,COc1ccc(cc1)C1=C2C3C4=CC5=NSN=C5C=C4C(C4=CC5=NSN=C5C=C34)C2=C(c2ccc(OC)cc2)C2=NSN=C12,5.57479646
3961,COWNUZ,C28 H12 N6 S5,S1N=C2C=C3C4C5=CC6=NSN=C6C=C5C(C3=CC2=N1)C1=C(C2=CC=CS2)C2=NSN=C2C(=C41)C1=CC=CS1,5.1707073900000005
3962,COWPOV,C26 H19 N3 O2 S1,O=C(CC(C1CSc2ccccc2C1=C(C#N)C#N)c1ccccc1)c1cccc[n+]1[O-],5.50186994
3963,COWQAJ,C46 H30,c1ccc(cc1)C(c1ccccc1)=C(c1ccccc1)c1ccc2ccc3ccc4ccc5ccc6ccccc6c5c4c3c2c1,5.63792686
3964,COWQEN,C48 H30,c1ccc(cc1)C(C#Cc1ccc2ccc3ccc4ccc5ccc6ccccc6c5c4c3c2c1)=C(c1ccccc1)c1ccccc1,5.4243175
3965,COWYIZ,C49 H69 N3 O5,CCCCCCOc1cc2c3cc(OCCCCCC)c(OCCCCCC)cc3c3nc4cc(ccc4nc3c2cc1OCCCCCC)C(=O)N(CC)CC,5.06839258
3967,COXBEW,C33 H30 O7,COc1ccccc1OC(C)C(c1ccc(OC(C)=O)c(OC)c1)C1(O)c2ccccc2C(=O)c2ccccc12,6.08936374
3968,COXCAU,C36 H34 N1 O1 P1,CC(C)c1cccc(C(C)C)c1N=P(c1ccccc1)(c1ccccc1)c1cccc2c1Oc1ccccc21,5.72391484
3969,COXCUQ,C48 H30,c1ccc(cc1)C(C#Cc1cccc2c1ccc1ccc3ccc4ccc5ccccc5c4c3c21)=C(c1ccccc1)c1ccccc1,5.62404906
3970,COXDAX,C46 H30,c1ccc(cc1)C(c1ccccc1)=C(c1ccccc1)c1ccc2ccc3ccc4ccc5ccc6ccccc6c5c4c3c2c1,5.631124020000001
3971,COXJAC,C30 H30 N4 O2,Nc1ccccc1N=Cc1ccc(OCCCCOc2ccc(cc2)C=Nc2ccccc2N)cc1,5.75139834
3972,COXQOY,C18 H16 N2 O1,CC(=[NH+]Cc1ccccn1)c1ccc2ccccc2c1[O-],5.55275524
3974,COXVUI,C11 H9 N1 O2 S1,CSC1=C(C(=O)NC1=O)c1ccccc1,5.73017347
3975,COXWUJ,C18 H18 N4 O6 S2,COC(=O)C=C1SC(=NN=C2SC(=CC(=O)OC)C(=O)N2CC=C)N(CC=C)C1=O,5.68581891
3976,COXXAQ,C27 H20 O7,COC(=O)Oc1c2ccccc2c(O)c2C(=O)c3ccccc3C(=O)C(=C3OC(C)(C)C=C3)c12,5.80990282