,ID,formula,smiles,HOMO_LUMO_gap
9117,GIBPEO,C34 H24 N2,CC(C)(C)c1cc2ccc3c(cc(c4ccc(cc4)C#N)c4ccc(c1)c2c34)c1ccc(cc1)C#N,5.23628683
9118,GIBPUE,C32 H26,CC(C)(C)c1cc2ccc3c(cc(c4ccccc4)c4ccc(c1)c2c34)c1ccccc1,5.40309261
9119,GIBREO,C42 H30 O6,COc1c2ccccc2c(OC)c2C#Cc3c(OC)c4ccccc4c(OC)c3C#Cc3c(OC)c4ccccc4c(OC)c3C#Cc12,5.5424149
9120,GIBTUI,C20 H22 N2 O2,O=Cc1ccc(N2CCCC2)c2c(ccc(C=O)c12)N1CCCC1,5.37941871
9121,GIBVAQ,C17 H18 N2 O2,CN1c2ccc(C=O)c3c(C=O)ccc(N(C)C1(C)C)c23,5.60364052
9122,GIBVIX,C17 H15 N1 O3,CN(C)C1(C(=O)Oc2ccccc2C1=O)c1ccccc1,6.24174751
9123,GIBVUL,C17 H18 N2 O1,CC1=C2C(=O)C(C)(C)C(=C2C(=C(C#N)C#N)C1(C)C)C,5.626225979999999
9124,GIBWAS,C20 H18 N4,CC1=C2C(=C(C)C(C)(C)C2=C(C#N)C#N)C(=C(C#N)C#N)C1(C)C,5.4896248199999995
9125,GIBWOF,C32 H19 Cl1 F3 N1 O1,Fc1c(F)c2c(OC(=C2c2ccccc2)c2ccc(Cl)cc2)c(F)c1N(c1ccccc1)c1ccccc1,5.83031136
9126,GICKEL,C17 H13 Cl1 N2,Clc1ccc(cc1)C1Nc2cccc3cccc(N1)c23,6.03167561
9127,GICLIQ,C16 H17 N1 O3,Oc1cccc(C[NH2+]C(CC(=O)[O-])c2ccccc2)c1,6.09371757
9128,GICMIR,C22 H10 N4 S4,N#Cc1nc(C2=CC=C(S2)C2=CC=CS2)c(nc1C#N)C1=CC=C(S1)C1=CC=CS1,4.76716255
9129,GICMOX,C20 H10 N4 O2 S2,COC1=CC=C(S1)C#Cc1nc(C#N)c(nc1C#CC1=CC=C(OC)S1)C#N,4.943492320000001
9130,GICSAP,C16 H15 N7,CC1=CC(=NN1)N=C1NC(=NC2=NNC(=C2)C)c2ccccc12,5.9002446200000005
9131,GICSOB,C20 H16 O6,COC(=O)C(=C1OC(=O)C(=C1O)c1ccc(OC)cc1)c1ccccc1,5.25587902
9132,GICWUK,C32 H26,CCCc1c2c3cccc4cccc(c2c(CCC)c2c5cccc6cccc(c12)c56)c34,5.1810477200000005
9133,GICXEV,C7 H8 S5,CC1SC2=C(SC1C)SC(=S)S2,5.93480308
9134,GICYAT,C19 H30 O2,CC1(C)OC2CCC3(C)C(CCC3=C=C)C2(C)CCC1O,5.40554165
9135,GIDBON,C19 H17 N5 O3 S1,CCOC(=O)C1=NN(c2ccccc2)C2=NC3=C(C(=O)N2N1)C1=C(CCC1)S3,5.88446202
9136,GIDDAY,C18 H18 N2 O5,CC(=O)OC1CCN2C1CCC(N1C(=O)c3ccccc3C1=O)C2=O,5.84935933
9137,GIDDUU,C24 H21 N1 O3,Cc1ccc(cc1)C(=O)C=C1Nc2ccccc2OC1(O)c1ccc(C)cc1,5.90650324
9138,GIDGUW,C28 H20 O1,CC1(Oc2ccc3ccccc3c2c2c3ccccc3ccc12)c1ccccc1,5.84119591
9139,GIDHEG,C18 H21 N3 S1,CCN(CC)C(=S)N=C(Nc1ccccc1)c1ccccc1,6.09126854
9140,GIDHEH,C33 H20 O1,O1c2ccc3ccccc3c2c2c3ccccc3ccc2C21c1ccccc1c1ccccc21,5.7903106300000005
9141,GIDHOT,C16 H10 N4 O2 S2,COC1=CC=C(S1)c1nc(C#N)c(nc1C1=CC=C(OC)S1)C#N,5.05778014
9142,GIDJOV,C18 H19 N1 O7,COC(=O)C1=C(C(=O)OC)C23CN(CC45OC(C=C4)C(C1O2)C35)C(C)=O,6.67468064
9143,GIDKAG,C27 H36 N2 O4,CCCCCCCCCCCC(=O)Oc1ccc(cc1)N=Nc1ccc(cc1)C(=O)OCC,6.40447159
9144,GIDLIR,C25 H27 F1 N2 O3 S1,CC(C)(C)S(=O)NC1(C(=O)N(CC=C)c2ccccc12)C1(F)CCc2ccccc2C1=O,6.1097722800000005
9145,GIDPOA,C33 H31 Cl2 N3 O4 S1,CCOC(=O)C=C1CN(CC(C2=CN(C)c3cccc(Cl)c23)C2=C1N(C)c1cccc(Cl)c21)S(=O)(=O)c1ccc(C)cc1,5.69479866
9146,GIDVUN,C24 H28 F1 N1 O4 S1,CCOC(=O)C(NS(=O)C(C)(C)C)(c1ccccc1)C1(F)CCc2ccccc2C1=O,6.62651649
9147,GIDWIA,C25 H20 N2 O1 S1,CS(=O)c1ccc(cc1)c1ccc(cc1)N=Nc1ccc(cc1)c1ccccc1,5.50758433
9148,GIDWOI,C32 H20 N4,N#Cc1ccc(cc1)N1C(=CC2=C1C=C(N2c1ccc(cc1)C#N)c1ccccc1)c1ccccc1,5.62187215
9149,GIDWUO,C32 H20 N4,N#Cc1ccc(cc1)C1=CC2=C(C=C(N2c2ccccc2)c2ccc(cc2)C#N)N1c1ccccc1,5.32554017
9150,GIDXEZ,C34 H26 N2 O4,COC(=O)c1ccc(cc1)N1C(=CC2=C1C=C(N2c1ccc(cc1)C(=O)OC)c1ccccc1)c1ccccc1,5.82622965
9151,GIDXID,C38 H30 N2 O8,COC(=O)c1ccc(cc1)N1C(=CC2=C1C=C(N2c1ccc(cc1)C(=O)OC)c1ccc(cc1)C(=O)OC)c1ccc(cc1)C(=O)OC,5.0844473
9152,GIDXOJ,C40 H38 N2 O4,COC(=O)c1ccc(cc1)N1C(=CC2=C1C=C(N2c1ccc(cc1)C(=O)OC)c1ccc(cc1)C(C)C)c1ccc(cc1)C(C)C,5.3674457
9153,GIDXUN,C27 H29 N5 O10,CCOC(=O)C1=CNC(=C1C(=O)OCC)NC(=O)c1cccc(n1)C(=O)NC1=C(C(=O)OCC)C(=CN1)C(=O)OCC,5.85398526
9154,GIDYAV,C48 H42 Br2 N4 O4,BrCCCCOc1ccccc1C(=O)C1=CNc2cc3ccccc3cc2N=CC(=CNc2cc3ccccc3cc2N=C1)C(=O)c1ccccc1OCCCCBr,5.12608071
9155,GIDYAW,C42 H46 N2,CC(C)c1ccc(cc1)N1C(=CC2=C1C=C(N2c1ccc(cc1)C(C)C)c1ccc(cc1)C(C)C)c1ccc(cc1)C(C)C,5.6607844400000005
9156,GIDYEA,C40 H38 N2 O4,COC(=O)c1ccc(cc1)C1=CC2=C(C=C(N2c2ccc(cc2)C(C)C)c2ccc(cc2)C(=O)OC)N1c1ccc(cc1)C(C)C,5.136693149999999
9157,GIDZEB,C25 H20 N2 O3,CN1C(=O)C(CN2C(=O)c3ccccc3C2=O)C(c2ccccc2)c2ccccc12,6.02269585
9158,GIDZIF,C27 H20 N2 O3,Cc1ccc2N3C(=O)C(CN4C(=O)c5ccccc5C4=O)C(c4ccccc4)C3=Cc2c1,5.62350484
9159,GIFCEG,C28 H24 N2 O3,Cc1cccc(C=Nc2ccc(Oc3ccc(cc3)N=Cc3cccc(C)c3O)cc2)c1O,5.96364715
9160,GIFKUD,C20 H19 N1 O3,CC(=C)C(CO)N(O)C(=O)c1c2ccccc2cc2ccccc12,5.387037899999999
9161,GIFLEO,C27 H22 N4 O2,CC1=NN(c2ccccc2)C(=C1C(c1ccccc1)=C1C(=NN(c2ccccc2)C1=O)C)O,4.76253661
9162,GIFLIS,C20 H20 O5,COc1cc2C(=CC(=O)c3cc(OC)c(OC)cc3c2cc1OC)C,6.01426033
9163,GIFLUE,C13 H15 N1 O1 S1,O=C(C(=S)N1CCCCC1)c1ccccc1,6.26215604
9164,GIFSIX,C30 H40 O1,CC(C=O)=CC=CC(C)=CC=CC=C(C)C=CC=C(C)C=CC1=C(C)CCCC1(C)C,4.2615750100000005
9165,GIFYAY,C17 H12 O3 S1,Cc1ccc2SC(=C(O)C(=O)c2c1)C(=O)c1ccccc1,5.887999499999999
9166,GIGDOR,C26 H29 N1 O8,COC(=O)C1=Cc2cc(cc(c2OC1=O)C(C)(C)C)C1C(=C(C)NC(=C1C(=O)OC)C)C(=O)OC,5.886638930000001
9167,GIGGEK,C22 H19 Br1 N2 O6,COC(=O)C1CC(C(N1)c1ccc(Br)cc1)(N1C(=O)c2ccccc2C1=O)C(=O)OC,6.22950238
9168,GIGHOT,C17 H21 N1 O1 S4,CSC(SC)=C(SC(=S)N1CCCCC1)C(=O)c1ccccc1,6.20528424
9169,GIGJOV,C14 H13 N3,N#CC(=Cc1ccccc1N1CCCC1)C#N,5.468127830000001
9170,GIGKUF,C22 H28 N6 O2 S2,CCN(CC)C(=S)NC(=O)c1cccc(n1)c1cccc(n1)C(=O)NC(=S)N(CC)CC,5.58105507
9171,GIGLUD,C16 H12 N2 S2,CN1C(Sc2ccccc12)=CC1=Nc2ccccc2S1,5.8499035500000005
9172,GIGPET,C24 H14 O6,O=C(c1ccccc1)C(=O)C(=O)c1ccc(cc1)C(=O)C(=O)C(=O)c1ccccc1,6.147324
9173,GIGQAR,C14 H18 N6 O3,CC(C)(C)OC(=O)N1N=C(N)C(=C1N)N=Nc1ccc(O)cc1,5.78405201
9174,GIGQEU,C25 H20 N2 O3,CN(C)c1ccc2c(OC(=O)C3=C2N=C(c2ccccc2)C3(O)c2ccccc2)c1,5.0605012799999995
9175,GIGQEV,C19 H26 N6 O5,CC(C)(C)OC(=O)Oc1ccc(cc1)N=NC1=C(N)N(N=C1N)C(=O)OC(C)(C)C,5.79711347
9176,GIGQIY,C22 H20 N2 O3,CN(C)c1ccc2c(OC(=O)C3=C2N=C(c2ccccc2)C3(C)C(C)=O)c1,5.15900649
9177,GIGQUK,C27 H24 N2 O4,CN(C)c1ccc2c(OC(=O)C(=C2NC(C(C)=O)c2ccccc2)C(=O)c2ccccc2)c1,6.04337651
9178,GIGTUM,C19 H13 P1 S2,S1C=CC=C1c1cc(cc(p1)C1=CC=CS1)c1ccccc1,5.81153551
9179,GIGVOJ,C27 H23 N3 O3,Cc1ccc(cc1)N1C2=C(C(=O)CC(C)(C)C2)C23C(=O)c4ccccc4C12OC(=C3C#N)N,6.1192962699999995
9183,GIHCEI,C26 H20 N2,CN1c2ccccc2c2c1cc(c1ccccc1)c1N(C)c3ccccc3c21,5.78541257
9184,GIHDAE,C30 H16 F4 N4 S6,Fc1ccc(cc1)N1C(=S)N(c2ccc(F)cc2)C2=C1SSSSC1=C2N(C(=S)N1c1ccc(F)cc1)c1ccc(F)cc1,5.428399199999999
9185,GIHGEM,C39 H44 O3,CC(=C)C1CCC(=C)C2C1C=C(C)C(=O)C1=C2C2C3=C(C4C(C=C(C)C3=O)C(CCC4=C)C(C)=C)C(=O)C2(C)C(=C1)C,5.7500377799999995
9186,GIHMIV,C15 H19 F3 N2 O1 S1,CCCCCCNC(=S)NC(=O)c1ccc(cc1)C(F)(F)F,5.84418917
9187,GIHPUJ,C18 H8 Br2 N4,Brc1ccc(cc1)c1nc(C#N)c(nc1c1ccc(Br)cc1)C#N,5.7905827400000005
9188,GIHQEV,C12 H8 N2 S2,S1C=CC=C1C1=CC=C(S1)c1cncnc1,5.89480235
9189,GIHQIZ,C12 H7 Br1 N2 S2,Brc1cncnc1C1=CC=C(S1)C1=CC=CS1,5.59030695
9190,GIHQOF,C14 H9 Br1 N2 S1,Brc1cncnc1C1=CC=C(S1)c1ccccc1,5.85235258
9191,GIHQUM,C28 H16 F6 O2,FC(F)(F)c1ccc(cc1)C1=CC=C(O1)c1ccc(cc1)C1=CC=C(O1)c1ccc(cc1)C(F)(F)F,5.37778603
9192,GIHVID,C30 H36 Br2 N2 O4,CCCCCCCCN1C(=O)c2cc(Br)c3C(=O)N(CCCCCCCC)C(=O)c4cc(Br)c(C1=O)c2c34,5.320369999999999
9193,GIHWOM,C30 H24 N4 O2 S1,CCOC(=O)C1(C#N)C(C2CSCN2C21c1ccccc1c1nc3ccccc3nc21)c1ccccc1,6.172902700000001
9194,GIHZOM,C27 H26 N2 O3,CCOC(=O)C1C=C(NC(=O)C1(Nc1ccc(C)cc1)c1ccccc1)c1ccccc1,6.162018140000001
9195,GIJBEI,C29 H21 N3 O3,COC(=O)c1cc2c(Nc3ccccc23)c(n1)c1cc(c2ccccc2)c2cccc(OC)c2n1,5.80636534
9196,GIJCAD01,C5 H5 N1 O1 S1,ON1C=CC=CC1=S,5.92582332
9197,GIJCEK,C28 H16 F6 O2,FC(F)(F)c1ccc(cc1)C1=CC=C(O1)c1ccc(cc1)C1=CC=C(O1)c1ccc(cc1)C(F)(F)F,5.35819383
9198,GIJGAK,C36 H30 B1 N3,Cc1cc(C)c(c(C)c1)[B-]1([N+]2=CC=CN2c2ccccc12)c1ccc(cc1)N1c2ccccc2c2ccccc12,5.95167414
9199,GIJLES,C17 H15 F3 N2 O2,CCOC(=O)C1=C2C=CC=CC3=C2C(=C1)C(=NN3CC)C(F)(F)F,4.927981839999999
9200,GIJLIW,C17 H18 N2 O2,CCOC(=O)C1=C2C=CC=CC3=C2C(=C1)C(=NN3CC)C,4.97233639
9201,GIJLUI,C19 H26 N6 O2 S1,CCOC(=O)NN=C(C)C(C)=NC1=NN(C(S1)=NC(C)(C)C)c1ccccc1,5.3320709
9202,GIJRIC,C44 H28,c1ccc(cc1)c1ccc2c3ccc(c4ccccc4)c4c(ccc(c5ccc(c6ccccc6)c1c25)c34)c1ccccc1,4.41042129
9203,GIJROI,C38 H24,c1ccc(cc1)c1ccc2c3ccc(c4ccccc4)c4c(ccc(c5cccc1c25)c34)c1ccccc1,4.458041209999999
9204,GIJSEZ,C16 H14 O4,COc1ccc(OC=CC=CC(O)=O)c2ccccc12,5.87194478
9205,GIJTID01,C15 H12 Cl3 N3 O1,Nc1ncccc1NC(=CC(=O)C(Cl)(Cl)Cl)c1ccccc1,6.15630375
9206,GIJXEE,C22 H14 N4 O1,[O-]c1c2ccccc2c2ccccc2c1N=[NH+]c1nncc2ccccc12,4.9704316
9207,GIKBOU,C44 H26 N4 O2,O1c2ccccc2N(c2ccccc12)c1nc2ccccc2c2c1ccc1c(nc3ccccc3c21)N1c2ccccc2Oc2ccccc12,4.72716181
9208,GIKBUA,C33 H20 N2 O1,O1c2ccccc2N(c2ccccc12)c1nc2ccccc2c2c1ccc1ccc3ccccc3c21,4.98186037
9209,GIKGAJ,C8 H12 N2 O3,CC1(C)OC(=[NH2+])C=C1NCC(=O)[O-],5.17805446
9210,GIKHIS,C13 H17 N3 O2 S1,CC(=NNC(=S)N1CCOCC1)c1ccccc1O,6.217801489999999
9211,GIKHIT,C16 H16 N2 O2,CCOC(=O)C1=CC2=CN(CC)N=C3C=CC=CC1=C23,4.963084520000001
9212,GIKHOZ,C18 H18 N2 O3,CCOC(=O)C1=C2C=CC=CC3=C2C(=C1CCC(C)=O)C=NN3,5.01152078
9213,GIKJAL,C16 H16 O6,COc1cc(O)c2C(=O)C3=C(C(O)C(C)OC3C)C(=O)c2c1,5.79275964
9214,GIKJIT,C7 H4 Br1 N1 O1,BrC1=CN2C(=O)C=CC2=C1,5.75874542
9215,GIKMOF,C20 H25 N3,CC(C)N(N=NC(=Cc1ccccc1)c1ccccc1)C(C)C,6.04582554
9218,GIKXEF,C25 H18 N2 O4,Cc1ccc(cc1)N1C(=O)N(c2ccc(C)cc2)C(C1=O)=C1Oc2ccccc2C1=O,5.565000359999999
9219,GIKYOQ,C25 H24 N2 O7 S1,COc1cc(cc(OC)c1OC)C1C(=C(C)NC2=C1S(=O)(=O)c1ccccc21)C(=O)OCCC#N,5.56445613
9220,GIKZUW,C18 H10 S2,S1C=Cc2ccc3cc4c(ccc5C=CSc45)cc3c12,5.57724548
9221,GILBUZ,C38 H28,CC(C)c1c2cccc3C#Cc4cccc5c4cc4c(cccc4c5C(C)C)C#Cc4cccc1c4cc23,4.54457342
9222,GILCOV,C37 H34 O5,COc1ccc(C=CC(=O)C2=C(O)CC(C(C2c2ccc(C)cc2)C(=O)c2ccccc2)c2ccc(OC)cc2)cc1,6.13208562
9223,GILDOW,C27 H21 N3 O3,O=C1OCC2=C1C1(C(=O)c3cccc4cccc1c34)C1=C(N2)N(C=C1C#N)C1CCCCC1,6.02460065
9224,GILFUD,C40 H42 N2 O4,CCCCCCCCN1C(=O)c2ccc3c4ccc5C(=O)N(CCCCCCCC)C(=O)c6ccc(c7ccc(C1=O)c2c37)c4c56,4.327698680000001
9225,GILHAL,C21 H21 N1 O2 S1,CCOC(=O)c1ccc(nc1)C#Cc1ccc2SCCC(C)(C)c2c1,5.66921996
9226,GILNEW,C13 H17 N1 O2,CCN(CC)c1ccc(C=CC(O)=O)cc1,5.88038031
9227,GILPAV,C20 H16 N2 O5,CCOC(=O)c1c(N)c(C#N)c2c3ccccc3C(=O)c2c1C(=O)OCC,5.84908722
9228,GILREA,C40 H34 N6 O5,O=C1N2CCOCCOCCOCCN3C(=O)C(=Nc4ccccc34)C3=C(N4C=CC=CC4=C3)C3=C(C=C4C=CC=CN34)C1=Nc1ccccc21,4.69505237
9229,GILVCN,C26 H26 O9,COc1cc(C)cc2C(=O)Oc3c(cc(OC)c4c(O)ccc(C5OC(C(C)O)C(O)C5O)c34)c12,5.6365663
9230,GILWOO,C16 H17 N1 O3,CN(C)c1ccc2c(OC(=O)C3=C2OC(C)(C)C=C3)c1,5.79602501
9231,GILWUU,C30 H21 Cl2 N1 O1 S1,Clc1ccc(cc1)C=C1SC(CC(=O)c2ccccc2)(N=C1c1ccccc1)c1ccc(Cl)cc1,5.93289828
9232,GILXEF,C19 H21 N1 O3,CCCC1=C(NC(C)(C)C)OC2=C1C(=O)c1ccccc1C2=O,4.8411775200000005
9233,GILXEH,C13 H9 N1 O2,O=C1C=CC=C2N1Cc1ccccc1C2=O,5.49588344
9234,GILXIJ,C24 H29 N1 O4,CCCCN(CCCC)c1ccc(cc1)C1=C(O)C(=O)c2ccc(OC)cc2O1,5.91983682
9236,GILYAC01,C22 H14 O2 S3,C1COC2=C(SC(=C2O1)C1=Cc2ccccc2S1)C1=Cc2ccccc2S1,5.26621935
9237,GILYIK,C42 H30 N2 S2,S1C(=CC=C1c1cc(C2=CC=C(S2)N(c2ccccc2)c2ccccc2)c2cccccc12)N(c1ccccc1)c1ccccc1,4.363073480000001
9238,GILYUX,C13 H10 N4 O1,Oc1ccc2ccccc2c1C=NC1=NNC=N1,5.87711494
9239,GILZAD,C27 H19 N3 O3,CN1C(=C(C#N)C2(C(=O)C(=C(C)C2=O)C)C1=C(C#N)C(=O)c1ccccc1)c1ccccc1,5.8286786799999994
9240,GILZEH,C26 H17 N3 O3,CN1C(=C(C#N)C2=C1C(=C(OC12OC(=O)C=C1C)c1ccccc1)C#N)c1ccccc1,5.7916712
9241,GIMBAF,C20 H27 F1 O1,CC(=CC=O)C=CC(F)=C(C)C=CC1C(=CCCC1(C)C)C,5.53506784
9242,GIMCEK,C24 H28 N2,Cc1cccc(C)c1N=C1C2CCC(C)(C1=Nc1ccccc1)C2(C)C,6.34651134
9243,GIMDEN,C26 H24 O4,CCOc1ccc(cc1)c1cc2OC(=O)C=C(C)c2cc1c1ccc(OCC)cc1,5.958204869999999
9244,GIMDEO,C22 H10 F6 O8 S2,FC(F)(F)S(=O)(=O)Oc1cccc2C3c4cccc(OS(=O)(=O)C(F)(F)F)c4C(C4=C3C(=O)C=CC4=O)c12,5.5620071
9245,GIMDOX,C10 H7 Cl2 N1 O1,CC(=O)C1=CC(=C2N1C=CC2=CCl)Cl,5.27166162
9247,GIMGAM,C19 H11 Cl2 N1 O2,Clc1ccc(N(CC#C)C2=CC(=O)c3ccccc3C2=O)c(Cl)c1,5.66568249
9248,GIMHUF,C27 H36 O5,CC=CC(=O)C(C)C1=CC(=O)C2=C(OC34CCC(O)C(C)(C)C3CCC(C)C4(C)C2)C1=O,5.924190639999999
9249,GIMJIX,C33 H25 N3,CN1C=C(C2N(c3ccccc3)C(=Cc3nc4ccccc4cc23)c2ccccc2)c2ccccc12,5.80500477
9250,GIMPEY,C16 H17 Cl3 N2 O2,COc1ccc(NC(Nc2ccc(OC)cc2)C(Cl)(Cl)Cl)cc1,7.16285288
9251,GIMQAV,C22 H18 N4 O2,CC(=O)N(C=CC=CC1=C(C#N)C(OC1(C)C)=C(C#N)C#N)c1ccccc1,4.834102549999999
9252,GIMQEZ,C24 H20 N4 O2,CC(=O)N(C=CC=CC=CC1=C(C#N)C(OC1(C)C)=C(C#N)C#N)c1ccccc1,4.42756446
9253,GIMROL,C11 H6 O1 S1,O=C1C2=C(C=CS2)c2ccccc12,5.89126486
9254,GIMTII,C44 H32 N2 O2,CN(C)C(=O)C1=C(C(=O)N(C)C)c2c3ccccc3c3ccc4ccccc4c3c2c2c3c4ccccc4ccc3c3ccccc3c12,5.44227701
9255,GIMXAD,C28 H23 N3 O3,COc1ccc(cc1OC)C1C2CCCN2C2(C(=O)c3cccc4cccc2c34)C1(C#N)C#N,5.53370726
9256,GIMXEH,C26 H21 F1 N2 O3,CCOC(=O)C1(C#N)C(CN(C)C21C(=O)c1cccc3cccc2c13)c1ccc(F)cc1,6.26868677
9257,GIMXOR,C32 H20,c1ccc2c(c1)cc1ccccc1c2C=Cc1ccc2ccc3cccc4ccc1c2c34,5.18431308
9258,GINBOV,C20 H18 O3,COc1cc(CC=C)cc2C(=O)C(COc12)=Cc1ccccc1,5.891264860000001
9259,GINBUB,C14 H12 O4,CC(C)(C(O)=O)C1=CC(=O)c2ccccc2C1=O,6.693728609999999
9260,GINCIQ,C22 H17 N1 O1,CC(=O)c1ccc(C=CN2c3ccccc3c3ccccc23)cc1,5.883917790000001
9261,GINCOW,C17 H13 N3 O3,COC(=O)c1ccccc1NN=C1C=CC(=O)c2ncccc12,5.114924049999999
9262,GINCUC,C16 H14 Br1 N1,CC(C=Nc1ccc(Br)cc1)=Cc1ccccc1,5.91004072
9263,GINGOA,C17 H9 N1 O4,OC(c1ccc(cc1)C#N)=C1C(=O)OC(=O)c2ccccc12,5.853168920000001
9264,GINHUH,C13 H14 N2 O3,O=C1N(CN2CCOCC2)C(=O)c2ccccc12,6.36909679
9265,GINPEZ,C29 H28 N1 O4 P1 S1,CCOC(=O)C1=C(C)C(=C(S1)N=P(c1ccccc1)(c1ccccc1)c1ccccc1)C(=O)OCC,5.68500256
9266,GINPOL,C22 H18 N4 O6,Oc1ccccc1C=NNC(=O)c1ccc(C(=O)NN=Cc2ccccc2O)c(O)c1O,5.99575658
9267,GINQAX,C10 H11 N1 O4,Cc1ccc[n+]2c1C(O)CC2(O)C(=O)[O-],5.0098881
9268,GINTOO,C33 H32 O1,CC(C)(C)c1ccc(cc1)c1cc2C(=O)c3ccccc3c2cc1c1ccc(cc1)C(C)(C)C,5.64962776
9269,GINTUU,C25 H24 O5 S1,COC(=O)C=Cc1cccc(OC)c1c1c(OC)cccc1S(=O)c1ccc(C)cc1,6.46243183
9270,GINXIM,C21 H18 N2 O3 S1,CN1C(=O)C2(NC(=S)C(=C2C)C(=O)OCc2ccccc2)c2ccccc12,6.38243037
9271,GINXUY,C20 H17 N1 O5,CC(=O)C(Cc1ccccc1)(ON1C(=O)c2ccccc2C1=O)C(C)=O,6.1203847200000006
9272,GINYAF,C25 H24 N2 O6,CCOC(=O)C1(NC2(C(=O)N(C)c3ccccc23)C(=C1)C(=O)c1ccccc1)C(=O)OCC,6.12310587
9273,GINYEJ,C16 H15 N3 O2 S1,CN(C)C1=NC(=O)C(S1)=C1C(=O)N(CC=C)c2ccccc12,5.467583599999999
9274,GIPBAK,C13 H10 N2 O2 S1,COc1ccc2N=C(Sc2c1)c1cccc[n+]1[O-],5.784596240000001
9275,GIPBIS,C37 H30 O6,COc1ccc(OC)c(c1)C1C(=C(O)CC(c2ccccc2)C21C(=O)c1ccccc1C2=O)C(=O)C=Cc1ccccc1,5.80690957
9276,GIPCIT,C16 H14 N2 O5 S1,COC(=O)C1=C(C(=O)OC)C2(NC1=S)C(=O)N(C)c1ccccc21,5.86514193
9277,GIPCUD,C19 H15 N3 O1 S3,CN(C)c1ccc2nsc(C(=O)C3=CN(C(=S)S3)c3ccccc3)c2c1,4.72661758
9278,GIPDER,C29 H20 N4 S1,S1N=C2C(=CN=C(c3ccccc3)C2=N1)c1ccc(cc1)N(c1ccccc1)c1ccccc1,4.46457194
9279,GIPDIV,C29 H20 N4 S1,S1N=C2C(=CN=C(c3ccc(cc3)N(c3ccccc3)c3ccccc3)C2=N1)c1ccccc1,4.525797559999999
9280,GIPFIX,C36 H26 S2,S1C(=CC=C1C1=CC=C(S1)C=C(c1ccccc1)c1ccccc1)C=C(c1ccccc1)c1ccccc1,5.07220217
9281,GIPFOC,C21 H14 O2,O=C1C=Cc2ccccc2C21Cc1c(O2)ccc2ccccc12,5.72092159
9282,GIPFUI,C22 H14 Br2 O2,BrC1=Cc2ccccc2C2(CCc3c(O2)c(Br)cc2ccccc32)C1=O,5.35384001
9283,GIPGAP,C30 H19 Cl1 F1 N1 O4,CCOC(=O)C1=C2C=Cc3c(Cl)cc4C=C(Oc4c3N2C(=C1)C(=O)c1ccccc1)c1ccc(F)cc1,5.42894343
9284,GIPGAQ,C26 H23 N1 O2 S1,Cc1ccc(cc1)S(=O)(=O)N1Cc2ccccc2C2=C(CC2)C1=Cc1ccccc1,5.6169741
9285,GIPHIZ,C11 H9 N1 O1 S1,O=C(C=CC1=CC=CN1)C1=CC=CS1,5.75139834
9286,GIPJOH,C14 H10 Cl2 O3,CC1=CC=C(O1)C=CC(=O)c1cc(Cl)cc(Cl)c1O,5.75820119
9287,GIPKIC,C17 H19 N1 O5,CC(=O)C1=Cc2ccc(OCCN3CCOCC3)cc2OC1=O,6.18405937
9288,GIPKOI,C27 H22 N4 O2,Nc1ccc(cc1)C(=Cc1ccc(OCc2ccccn2)c(OCc2ccccn2)c1)C#N,5.51221027
9289,GIPMAT,C16 H10 N4 O3,CC(=O)OCCOC1=CC(C=CC1=C(C#N)C#N)=C(C#N)C#N,4.47736129
9290,GIPQUU,C17 H16 N4,CN(C)C(C#N)=C(C#N)N1C(=CC=C1c1ccccc1)C,6.03548521
9291,GIPRAB,C28 H22 N4,CN(C)C(C#N)=C(C#N)N1C(=CC(=C1c1ccccc1)c1ccccc1)c1ccccc1,5.87276112
9292,GIQHOG,C18 H14 N2 O2 S2,COc1cc2nc(C3=CC=CS3)c(nc2cc1OC)C1=CC=CS1,5.666770939999999
9293,GIQJOF01,C19 H14 N2,N(c1ccccc1)c1c2ccccc2nc2ccccc12,5.28798846
9294,GIQNUQ01,C14 H14 N4 O1,CC(=NNC(=O)c1ccccc1N)c1ccccn1,5.603096290000001
9295,GIQYAJ,C17 H15 F1 O2,Cc1ccc(cc1)C(O)=C(F)C(=O)c1ccc(C)cc1,5.90487056
9296,GIQYIO,C24 H16 N2 O1,O=C1C=CC2C3c4cccc5cccc(c45)C3(C#N)C1N2c1ccccc1,6.1603854600000005
9297,GIQYOX,C15 H9 Cl2 F1 O2,OC(=C(F)C(=O)c1ccc(Cl)cc1)c1ccc(Cl)cc1,5.925823319999999
9298,GIQYUA,C30 H28 S2,CC1=CCC23CC1C(C=C2C1=C(C3)C=CS1)=C1C=C2C3=C(CC42CC=C(C)C1C4)C=CS3,5.18948324
9299,GIQZAI,C21 H24 N2 O1,CC(NC(=O)C1=C(C)c2ccccc2N(C)C1C)c1ccccc1,6.05153993
9300,GIQZOV,C17 H15 N1 O1 S1,CN(C)c1ccc(cc1)C1=CC(=S)c2ccccc2O1,5.13832583
9301,GIQZOW,C24 H20 O2 S3,CCC1=CC=C(S1)C1=CC=C(O1)C1=CC=C(S1)C1=CC=C(O1)C1=CC=C(CC)S1,5.12689706
9302,GIQZUB,C19 H17 N1 O1 S1,CN(C)c1ccc(C=CC2=CC(=S)c3ccccc3O2)cc1,4.75192417
9303,GIQZUC,C32 H36 O2 S3,CCCCCCC1=CC=C(S1)C1=CC=C(O1)C1=CC=C(S1)C1=CC=C(O1)C1=CC=C(CCCCCC)S1,4.86512353
9304,GIRBUF01,C31 H20 O4,O=C(OCOC(=O)c1c2ccccc2cc2ccccc12)c1c2ccccc2cc2ccccc12,5.39628977
9305,GIRBUH,C22 H24 N2,CC1(C)C(=Nc2ccccc12)C1Cc2ccccc2N2CCCC12,6.20256311
9306,GIRMIG,C31 H26 N2 O4,CCN(CC)c1ccc2c(OC3=CC4=Nc5ccccc5OC4=CC3=C2c2ccccc2C(=O)OC)c1,3.92633075
9307,GIRVAF,C17 H12 Cl1 N3 O2,Oc1ccc2ccccc2c1C=NNC(=O)c1ccc(Cl)nc1,5.9410617
9308,GIRVEL,C44 H32,Cc1ccc(cc1)c1c2ccccc2c(C=Cc2c3ccccc3c(c3ccc(C)cc3)c3ccccc23)c2ccccc12,4.86131394
9309,GIRVIP,C48 H40,Cc1cc(C)c(c(C)c1)c1c2ccccc2c(C=Cc2c3ccccc3c(c3ccccc23)c2c(C)cc(C)cc2C)c2ccccc12,5.04635135
9310,GIRVOV,C38 H24 S2,S1C=CC=C1c1c2ccccc2c(C=Cc2c3ccccc3c(C3=CC=CS3)c3ccccc23)c2ccccc12,4.96226817
9311,GIRVUB,C34 H22 S1,S1C=CC=C1c1c2ccccc2c(C=Cc2c3ccccc3cc3ccccc23)c2ccccc12,4.985125740000001
9312,GIRZUD,C14 H10 N2 O1 S1,Oc1ccc(N=CC2=CC=CS2)c2cccnc12,5.76255501
9313,GISBAN,C29 H27 N1 O4,CCCN1C(=O)c2c3CCc4ccc(OC)cc4c3c3c(CCc4ccc(OC)cc34)c2C1=O,5.697247679999999
9314,GISBIU,C15 H11 N3 O1 S2,O=C(NC(=S)NC1=Nc2ccccc2S1)c1ccccc1,5.95793276
9315,GISBUI,C24 H25 N5 O5,COC(=O)C1=C(C(=O)OC)C2(CCN1C)C=CC=CC2=CC1=NN=NN1c1ccc(OC)cc1,5.96718462
9316,GISFAS,C10 H16 N2 O2,C[N+]1=C2N(CCC1)CCC2(C)C(=O)[O-],6.94244066
9317,GISFEW,C15 H18 N2 O2,O=C([O-])C1CCN2CCC[N+](=C12)Cc1ccccc1,6.996047099999999
9318,GISFIA,C9 H14 N2 O2,C[N+]1=C2C(CCN2CCC1)C(=O)[O-],7.15468947
9319,GISFOE,C22 H20 N2 O2,Cc1ccc(O)c(C=Nc2ccccc2N=Cc2cc(C)ccc2O)c1,5.93561942
9320,GISFOF,C26 H20 Br2 O1 S2,CC1=CC(=C(C)S1)C1(C(=O)c2cc(Br)ccc2c2ccc(Br)cc12)C1=C(C)SC(=C1)C,5.95330682
9321,GISGAQ,C17 H17 N1 O5,COC(=O)C=C1N2CCc3cc(OC)c(OC)cc3C2=CC1=O,5.39411286
9322,GISGAR,C15 H15 N1 O2 S3,CCOC(=O)CCC1=NC2=S(S1)SC(=C2)c1ccccc1,5.44527027
9323,GISJEZ,C24 H21 N1 O2,CCN1c2ccccc2c2cc(C=CC(=O)c3ccccc3OC)ccc12,5.74568395
9324,GISJID,C19 H13 Br1 N2 O5,COC(=O)C1=C(Nc2ccc(Br)cc2)C(=O)OC21C(=O)Nc1ccccc21,5.99276333
9325,GISKEA,C5 H11 N5 S1,C[NH+](C)CCN1N=NN=C1[S-],5.412888709999999
9326,GISLUR,C20 H20 N2 O2,CC(C)(C)c1ccc(O)c(c1)N=Nc1c(O)ccc2ccccc12,5.33451993
9327,GISNAZ01,C28 H32 N2 O2,CCCCOc1cc(C=Cc2ccncc2)c(OCCCC)cc1C=Cc1ccncc1,5.52499962
9328,GISNEC,C29 H25 N1 S2,Cc1ccc(SC(Sc2ccc(C)cc2)=CN=C(c2ccccc2)c2ccccc2)cc1,5.51710832
9329,GISNIG,C19 H18 O7,COc1cc2C(=O)c3cc(C)c(O)c(OC)c3C(=O)c2c(OC)c1OC,6.022423740000001
9330,GISQEF,C20 H17 N3,Cc1ccc(NC2=C3C=CC=CN3C(=C2)c2ccccn2)cc1,5.7073159
9331,GISQOQ,C19 H14 Br1 N3,Brc1ccc(cc1)C(C1=CC=CN1)=C1C=CC(=N1)C1=CC=CN1,4.53967537
9332,GISSOR,C12 H18 S5,S=C1SC2=C(SCCCCCCCCCS2)S1,6.0727648
9333,GISSUX,C35 H36 N4 O3,CCNc1cc2Oc3cc(NCC)c(C)cc3C3(N(CCN=Cc4ccccc4O)C(=O)c4ccccc34)c2cc1C,5.871672670000001
9334,GISTOS,C28 H21 N3 S1,S=C(Nc1ccccc1)Nc1ccccc1N=Cc1c2ccccc2cc2ccccc12,5.07791656
9335,GISYUD,C16 H12 N2 O2 S1,C1COC2=C(SC(=C2O1)c1ccccn1)c1ccccn1,5.897795589999999
9336,GITBER,C16 H17 N3 O2,CN(C)c1ccc(cc1)C=NNC(=O)c1cccc(O)c1,5.982423
9337,GITDAP,C19 H16 O1,CC(C)(O)C#Cc1c2ccccc2cc2ccccc12,5.23111666
9338,GITDIX,C17 H16 O2,COC(OC)c1c2ccccc2cc2ccccc12,5.55085044
9339,GITFAS,C17 H12 O3 S1,Cc1ccc2OC(=C3OCC(=O)C=C3c2c1)C1=CSC=C1,5.2928865
9340,GITFOF,C33 H30 N2,Cc1cc(C)c(N=C2C(N=C3C(=CC(=CC23C)C)C)=C2c3ccccc3c3ccccc23)c(C)c1,4.9015867900000005
9341,GITFUN,C16 H23 N5 O2 S1,S=C(NN=Cc1ccc(CN2CCOCC2)cn1)N1CCOCC1,5.67411801
9342,GITGAU,C18 H21 N5 O1 S1,S=C(NN=Cc1ccc(CN2CCOCC2)cn1)Nc1ccccc1,5.42676652
9343,GITGEY,C14 H21 N5 O1 S1,CN(C)C(=S)NN=Cc1ccc(CN2CCOCC2)cn1,5.2142456
9344,GITHAT,C19 H20 N4 O1,CC1(C)OC(=C(C#N)C#N)C(=C1C=CC=CN1CCCCC1)C#N,4.284976799999999
9345,GITHID,C12 H17 N5 O1 S1,NC(=S)NN=Cc1ccc(CN2CCOCC2)cn1,5.8428286
9346,GITJIE,C32 H28 O1 P2,CC(P(=O)(c1ccccc1)c1ccccc1)=P(c1ccccc1)(c1ccccc1)c1ccccc1,6.03793423
9347,GITKIE,C13 H13 Cl2 N1 O1,CN1CCC(=O)C(C1)=Cc1ccc(Cl)cc1Cl,6.72012365
9348,GITLIG,C38 H22 N2,c1ccc2c(c1)nc1ccccc1c2C1=C(c2cccc3cccc1c23)c1c2ccccc2nc2ccccc12,5.05206575