,ID,formula,smiles,HOMO_LUMO_gap
2591,BUKTAC,C16 H14,C1=CC=C2C=CC3=CC=CC=CC3C2C=C1,5.468127829999999
2593,BUKVUB,C31 H20 O1,O=C1C(=CC2=C(C3c4ccccc4C12c1ccccc31)c1ccccc1)c1ccccc1,5.3301661
2594,BUKWEM,C31 H20 O1 S1,O=S=C1C(=CC2=C(C3c4ccccc4C12c1ccccc31)c1ccccc1)c1ccccc1,4.658317009999999
2595,BUKYUB,C15 H13 N1,C1C2=CC=CC=C1C=C1CC(=C2)C=CC=N1,5.242817560000001
2596,BULBEP,C16 H14 O5,COC1=CC(=O)C(=CC1=O)C1COc2cc(O)ccc2C1,5.04635136
2597,BULBOB,C23 H18 N4,c1ccc(nc1)N(c1ccc(C=Cc2ccncc2)cc1)c1ccccn1,5.98922585
2598,BULCIU,C21 H15 N1 O1,O=C1C=Cc2ccccc2N(c2ccccc2)c2ccccc12,5.573708
2599,BULFOD,C19 H24 N2 O6 S1,CCOC(=O)CCc1cc(OC)c(OC)cc1S(=O)(=O)[N-]c1[nH+]ccc(C)c1,5.97779706
2600,BULGIB,C22 H17 N3 S1,S=C(NN=Cc1c2ccccc2cc2ccccc12)Nc1ccccc1,5.104583720000001
2601,BULGOH,C20 H14 N2 S1,S1C=CC=C1C=NN=Cc1c2ccccc2cc2ccccc12,5.0104323299999995
2602,BULLID,C10 H6 Cl1 N3 S1,Clc1cnc2Sc3ccccc3Nc2n1,6.014532440000001
2603,BULSIB,C26 H29 Br1 O8,CC(C)C(=O)C1=C(O)C(C)(C)C(=C(Cc2c(O)c3C=C(Br)C(C)(C)Oc3c(C(C)=O)c2O)C1=O)O,6.15820855
2604,BULTIO,C16 H10 O5,CC1=CC2=C(C=C3C(Oc4ccccc4C3=O)O2)C(=O)O1,5.7299013500000004
2605,BUMOTB,C20 H30 S2,CC(C)(C)SC1=CC(=C2SC=CC(=C12)C(C)(C)C)C(C)(C)C,4.98294883
2606,BUMTEI,C16 H11 Cl6 N1 O4,CCOC(=O)N1C=CC=CC2OC3(C(=C(Cl)C(=C(Cl)C3=O)Cl)Cl)C(Cl)(Cl)C12,5.29397496
2607,BUNBAO,C32 H40 N4 O2 S4,Oc1ccc2cccnc2c1CN1CCSCCSCCN(CCSCCSCC1)Cc1c(O)ccc2cccnc12,6.41889362
2608,BUNCAR,C34 H19 N1 O2,O=C1N(C(=O)c2cccc3cccc1c23)c1c(cccc1C#Cc1ccccc1)C#Cc1ccccc1,5.67520646
2609,BUNCEV,C40 H23 N1 O2,O=C1N(C(=O)c2ccc3c4cccc5cccc(c6ccc1c2c36)c45)c1c(cccc1c1ccccc1)c1ccccc1,4.485524720000001
2610,BUNCOF,C30 H19 N1 O2,O=C1OC(=Nc2c(cccc2c2ccccc2)c2ccccc2)c2cccc3cccc1c23,5.46921628
2611,BUNDBH,C33 H40 Br1 N3 O7,CC1C2CC(OC(C)=O)C=CC(=CCC(O)C=CC(=CC(NC(=O)C(C)=NNc3ccc(Br)cc3)C(C)(C(=O)O2)C1=O)C)C,5.8504477900000005
2613,BUNDOG,C46 H51 N1 O2,CC(C)(C)c1cc(cc(c1)C(C)(C)C)c1cccc(c2cc(cc(c2)C(C)(C)C)C(C)(C)C)c1N1C(=O)c2cccc3cccc(C1=O)c23,5.73507152
2614,BUNKEC,C42 H46 N2 O2,CC(C)c1cccc(C(C)C)c1N1C=CN(C1=C(c1ccccc1)C(=O)C(=O)c1ccccc1)c1c(cccc1C(C)C)C(C)C,5.7467724
2615,BUNLEE,C20 H10 I1 N1 O2,Ic1ccc2N3c4ccccc4C(=O)c4cccc(C(=O)c2c1)c34,5.56363979
2616,BUNPAD,C21 H13 Cl1 I3 N1 O2,CCOC(=O)C1=C(I)N=C(I)C21c1ccccc1C(=C2c1ccc(Cl)cc1)I,6.08854741
2617,BUNPOP,C17 H19 N3 O4 S1,CC1(C)SC(=C2N(C1CO)C(=O)NC2=O)NC(=O)Cc1ccccc1,6.14623554
2618,BUNQIM,C25 H31 N1 O3 S2,CCC(C(c1ccc(OC)cc1)c1ccc(OC)cc1)C(=O)N1C(CSC1=S)C(C)C,6.08473781
2619,BUNREK,C39 H24 N2 O4,O=C1OC(=Cc2cc(ccc12)N1c2ccccc2Oc2ccccc12)c1ccc(cc1)N1c2ccccc2Oc2ccccc12,4.84498711
2620,BUNRUY,C40 H31 N5 O3,COc1ccc(cc1)C1=NC2=NC(=C(C3=CC=C(N3)C(=C3C=CC(=N3)C3=CC=C1N3)c1ccc(OC)cc1)c1ccc(OC)cc1)C=C2,4.15409004
2621,BUNVAH01,C15 H20 O4,COC(=O)C(C)=CC=CC(C)=CC=C(C)C(=O)OC,5.17560544
2622,BUNXAM,C21 H16 N2 O2 Se1,O=C(NC(=[Se])NC1c2ccccc2C=Cc2ccccc12)C1=CC=CO1,5.61670198
2623,BUNYOY,C4 H8 N4 O2,NC(=O)C(N)=C(N)C(N)=O,6.15385473
2624,BUNZUH,C16 H14 N4 O2,O=C(NNC(=O)C=Cc1ccccn1)C=Cc1ccccn1,6.38270248
2625,BUPBEW,C40 H38 N2 O2,CCCCN1C(=O)C2=C(C(=O)N(CCCC)C(=C2c2ccccc2)c2ccccc2)C(=C1c1ccccc1)c1ccccc1,5.77888184
2626,BUPBIA,C26 H26 N2 O2,CCC1=C(c2ccccc2)C2=C(C(=O)N1C)C(=C(N(C)C2=O)c1ccccc1)CC,5.705683219999999
2627,BUPBOG,C26 H26 N2 O2,CCC1=C(N(C)C(=O)C2=C1C(=O)N(C)C(=C2CC)c1ccccc1)c1ccccc1,5.58486466
2628,BUPCBU,C48 H38 N4,CC(C)(C)c1c(C(c2ccccc2)=C(C#N)C#N)c(C(c2ccccc2)=C(C#N)C#N)c(c2C(=C(c3ccccc3)c12)c1ccccc1)C(C)(C)C,4.9516557400000005
2629,BUPDOF,C22 H20,CC1(C)C2=C1c1ccccc1C1=C(c3ccccc23)C1(C)C,5.107032739999999
2630,BUPDUL,C22 H20 N2,CC1(C)N=NC2=C1c1ccccc1C1=C(c3ccccc23)C1(C)C,5.780786639999999
2631,BUPJAA,C11 H9 N5,NC1=NC(=NC2=CC=NN2)c2ccccc12,5.4066301
2632,BUPJEE,C22 H15 N9,N1C=CC(=N1)N=C1NC(=NC2=NC(=NC3=CC=NN3)c3ccccc23)c2ccccc12,4.71736572
2634,BUPPEJ,C21 H26 N2 O4,COC(=O)C12CC3CC(C(C)O)C1N(CCC12Nc2ccccc2C1=O)C3,6.05480529
2635,BUPPIN,C26 H19 N3 O5 S1,O=C(Nc1cccc2cccnc12)C(CS(=O)(=O)c1ccccc1)N1C(=O)c2ccccc2C1=O,5.6988803699999995
2636,BUPPUZ,C16 H8 I2 N2 O2,Ic1ccc2NC(C(=O)c2c1)=C1Nc2ccc(I)cc2C1=O,4.35300526
2637,BUPQOT,C37 H52 N1 P1,CC(C)c1cccc(C(C)C)c1N=Cc1ccccc1Pc1c(cc(cc1C(C)(C)C)C(C)(C)C)C(C)(C)C,5.75411949
2638,BUPQOU,C20 H13 Cl1 O4,COc1c(O)cc2C(=C(O)C(=O)c3ccc(c4ccccc4)c1c23)Cl,5.0844473
2639,BUPQUA,C18 H10 O2,O=C1C(=O)c2c(ccc3cccc1c23)c1ccccc1,6.06378504
2640,BUPRAG,C37 H52 N1 P1,CC(C)c1cccc(C(C)C)c1Nc1ccccc1C=Pc1c(cc(cc1C(C)(C)C)C(C)(C)C)C(C)(C)C,5.55629272
2641,BUPRUZ,C28 H18 O3,OC(c1ccccc1)c1cc2C(=O)C=Cc3ccc4OC(=Cc1c4c23)c1ccccc1,4.70076677
2642,BUPZTP,C14 H16 N2 S2,CC(C)(C)c1cc2cnn(c3ccccc3)s2s1,5.16472088
2643,BUQDUO,C22 H17 N5 O1,Oc1ccccc1C=NNc1nnc(c2ccccc2)c(n1)c1ccccc1,6.05344472
2644,BUQNOS,C14 H15 N1 O1 S1,CN1C=CC=C1C=CC(=O)C1=C(C)SC(=C1)C,5.84691031
2645,BUQPEK,C26 H19 N5 O1,Oc1ccc2ccccc2c1C=NNc1nnc(c2ccccc2)c(n1)c1ccccc1,5.760922320000001
2646,BUQPIO,C23 H19 N5 O1,COc1ccc(cc1)C=NNc1nnc(c2ccccc2)c(n1)c1ccccc1,5.94133381
2647,BUQPOU,C24 H22 N6,CN(C)c1ccc(cc1)C=NNc1nnc(c2ccccc2)c(n1)c1ccccc1,5.59384442
2648,BUQQIQ,C22 H21 N1 O3,COc1ccc2C=C3CCCC(=C3Oc2c1)C=Nc1ccccc1CO,5.22812341
2649,BUQRAJ,C34 H26 N2 O2 S1,CC1(C)c2ccccc2N(c2ccc3c(c2)c2ccccc2S3(=O)=NC(=O)c2ccccc2)c2ccccc12,5.2966961
2650,BUQWAN,C18 H21 N3 O4 S2,CCN(CC)c1ccc2C=C(C=NNC(=S)SCC(=O)OC)C(=O)Oc2c1,5.265403
2651,BURGIG,C23 H18 N2 O4,COc1ccc(cc1)C=C1N=C(C=Cc2ccc3OC(=O)C=Cc3c2)N(C)C1=O,4.83845637
2652,BURGON,C25 H20 Cl1 N1 O2,COc1cc2CCc3c(nc4ccc(Cl)cc4c3c3ccccc3)c2cc1OC,5.82813445
2653,BURHII,C28 H24 Cl1 N1 O4,COc1cc(C=CC(=O)c2c(C)nc3ccc(Cl)cc3c2c2ccccc2)cc(OC)c1OC,6.06650619
2654,BURLIL,C32 H23 N3 O2,CCCCC(CC)CN1C(=O)c2c3cc(C#N)c4ccc5ccc6c(cc(c2C1=O)c1c6c5c4c31)C#N,5.82622965
2655,BURLOR,C30 H19 N3 O2,CCCCCCN1C(=O)c2c3cc(C#N)c4ccc5ccc6c(cc(c2C1=O)c1c6c5c4c31)C#N,5.81806624
2656,BURPUA,C30 H42 O4,CC(C)(C)C1=CC(=CC=C2C=C(C(=O)C(=C2C(C)(C)C)O)C(C)(C)C)C(=C(O)C1=O)C(C)(C)C,3.9154461999999994
2657,BURQAH,C30 H40 O4,CC(C)(C)C1=CC(=C(C(=O)C1=O)C(C)(C)C)C=CC1=C(C(=O)C(=O)C(=C1)C(C)(C)C)C(C)(C)C,4.8879811
2658,BURQAI,C26 H36 N2 S4,CCCCCCCCN1C(=S)c2cc3C(=S)N(CCCCCCCC)C(=S)c3cc2C1=S,4.84906881
2659,BURQEN,C14 H11 F3 N2 O2,Cc1c(Nc2ncccc2C(O)=O)cccc1C(F)(F)F,5.932081950000001
2663,BURTAM,C20 H10 N2 S2,S1C=Cc2c1c1C=CSc1c1nc3cc4ccccc4cc3nc21,4.7799518899999995
2664,BURTEP,C24 H14 N4 O2 S2,CC12Oc3ccccc3C1=C1C3=NSN=C3C3=NSN=C3C1=C1c3ccccc3OC21C,4.73260409
2665,BURTEQ,C10 H4 O2 S2,O=C1C(=O)C2=C(SC=C2)C2=C1SC=C2,5.4613249800000006
2666,BURTIT01,C32 H26 N4 O2 S4,COc1ccc(cc1)C1=C(C)C(=C(C)S1)C1=C(C2=NSN=C2C2=NSN=C12)C1=C(C)SC(=C1C)c1ccc(OC)cc1,5.19465341
2670,BURXIY,C18 H12 O4,CCOc1cccc2c1OC1=C2C(=O)c2ccccc2C1=O,5.34213912
2671,BURYIZ,C19 H18 N2 O4,CCOC(=O)CN1C(=NC(=Cc2ccc3cc(O)ccc3c2)C1=O)C,5.52282271
2672,BURYOC,C20 H21 N1 O6,CCOC(=O)C1(OCC)OC(=O)C(O1)=C1CCCC2=C1Nc1ccccc21,5.61915101
2673,BUSFIE,C22 H21 P1,C1CC(C1)=P(c1ccccc1)(c1ccccc1)c1ccccc1,5.3010499200000005
2674,BUSGEB,C15 H14 N4,CN1N=C(NN=C1c1ccccc1)c1ccccc1,6.345422879999999
2675,BUSHIG,C8 H9 N3 O2 S1,CCOC(=O)C(C#N)=C1SN(C)N=C1,5.7903106200000005
2676,BUSPEM,C34 H32 O8,COC(=O)C1=C(C2C=C(C)C=CC3C=CC1C23C12C3C=CC1=CC=C(C)C=C2C(=C3C(=O)OC)C(=O)OC)C(=O)OC,5.269212609999999
2677,BUSPEN,C25 H23 N3 O4,CCOC(=O)C1=C(NN=C1Cc1cccc2ccccc12)C(=O)Nc1ccc(OC)cc1,6.12745968
2678,BUSPIR,C15 H17 N3 O4,CCOC(=O)C1=C(C)NN=C1C(=O)Nc1ccc(OC)cc1,6.25235994
2679,BUSRAJ,C19 H3 Cl9 N2 S2,CC1=NN=C(S1)Sc1c(Cl)c(Cl)c2c(Cl)c(Cl)c(Cl)c3c4c(Cl)c(Cl)c(Cl)c(Cl)c4c1c23,5.208531219999999
2680,BUSREN,C25 H9 Cl7 N6 S6,CC1=NN=C(S1)Sc1c(Cl)c(SC2=NN=C(C)S2)c2c3c(Cl)c(Cl)c(Cl)c(Cl)c3c3c(SC4=NN=C(C)S4)c(Cl)c(Cl)c1c23,5.291525929999999
2681,BUSSEN,C28 H28 N2 O1,CN(C)C12N(C(c3ccccc3)C1(C)C)C(=C(c1ccccc1)C2=O)c1ccccc1,5.9410617
2682,BUSSOX,C21 H21 N5,N#CC1CN(c2ccccc2)C23CCCCC12N=[N+]([N-]3)c1ccccc1,5.821875830000001
2683,BUSYIZ,C34 H37 N1,CN(C)c1ccc(CCC2CCC(CC2)CCc2ccc3ccc4cccc5ccc2c3c45)cc1,5.54350337
2684,BUSZIA,C22 H20 O5,COc1ccc(C=CC(=O)c2ccc3ccccc3c2O)c(OC)c1OC,5.84201225
2685,BUTDIF,C17 H23 N1 O4,CC[NH+](CC)c1ccc(C[C-]2C(=O)OC(C)(C)OC2=O)cc1,4.60416635
2687,BUTJIL,C34 H36 N2 O8 S1,COCCOCCOCCOCCSc1cc(nc2c(NC(=O)OCC3c4ccccc4c4ccccc34)cccc12)C(O)=O,5.941878040000001
2688,BUTMAH,C45 H31 N5 S1,N#CC(=CC1=CC=C(c2ccc(cc2)N(c2ccccc2)c2ccccc2)C2=NSN=C12)c1ccc(cc1)N(c1ccccc1)c1ccccc1,4.235996310000001
2690,BUTQIR,C15 H17 N3 O3 S1,CCOC(=O)C1=C(C)N(C)C(S1)=NN=Cc1ccccc1O,5.87874763
2691,BUTQOW,C12 H16 N2 O2 S1,O=C(NC(=S)NC1CCCCC1)C1=CC=CO1,6.2553532
2692,BUTREO,C19 H13 N1 S4,S1C=CSC1=C1SC=C(S1)c1ccc(C=Cc2ccccn2)cc1,4.41722414
2693,BUTXOF,C14 H10 N2 S3,S=C1SSC(=N1)N(c1ccccc1)c1ccccc1,6.05072358
2694,BUTYOH,C33 H22 N4 S1,S1N=C2C(=CC=C(C3=NC(=C(N3c3ccccc3)c3ccccc3)c3ccccc3)C2=N1)c1ccccc1,5.073834860000001
2695,BUTYUN,C33 H21 F1 N4 S1,Fc1ccc(cc1)C1=CC=C(C2=NC(=C(N2c2ccccc2)c2ccccc2)c2ccccc2)C2=NSN=C12,5.00281314
2696,BUTZAU,C35 H26 N4 O1 S1,CCOc1ccc(cc1)C1=CC=C(C2=NC(=C(N2c2ccccc2)c2ccccc2)c2ccccc2)C2=NSN=C12,4.6994062
2697,BUVBUR,C7 H5 N1 O1,O=C1C=CC2=CC=CN12,5.91330609
2698,BUVCAY,C19 H33 N2 O1 P1,CC(C)N(C(C)C)P(N(C(C)C)C(C)C)C(=O)c1ccccc1,6.36174971
2699,BUVFIJ,C17 H14 N2 O2,CN1C(=O)C(=CC(=O)Nc2ccccc2)c2ccccc12,5.717656229999999
2700,BUVJOT,C29 H28 N6,CCCCN(CCCC)c1ccc(cc1)N=Nc1ccc(c2ccc(C#N)c(c2)C#N)c(c1)C#N,4.73804636
2701,BUVKEK,C16 H12 O2,Cc1ccc(cc1)C=C1Oc2ccccc2C1=O,5.73806476
2702,BUVLAG,C13 H9 N3 O1 S3,O=C(NC(=S)NC1=Nc2ccccc2S1)C1=CC=CS1,5.777793389999999
2703,BUVLUA,C19 H22 N1 O4 P1 S2,CCOP(=O)(OCC)N1CC(=CC2=CC=CS2)C(=O)C(C1)=CC1=CC=CS1,5.71030915
2704,BUVMAH,C22 H20 N1 O3 P1 S2,CP(=O)(Oc1ccccc1)N1CC(=CC2=CC=CS2)C(=O)C(C1)=CC1=CC=CS1,5.678471829999999
2705,BUVMEL,C21 H26 N1 O4 P1 S2,CCOP(=O)(CCN1CC(=CC2=CC=CS2)C(=O)C(C1)=CC1=CC=CS1)OCC,5.668131509999999
2706,BUVQOY,C38 H40 N2 O4,CCCCN1c2ccccc2C(C)(C)C1=CC1=C(C(=O)C1=O)C1=C(C=C2N(CCCC)c3ccccc3C2(C)C)C(=O)C1=O,4.07191166
2707,BUVRAO,C16 H12 Br1 F1 N4 O3,CN1C(NC(=O)C1=CC1=CC=C(Br)O1)=NC(=O)Nc1ccc(F)cc1,5.36717359
2708,BUVREP,C20 H24 N2 O2,CN(C)c1cc2CCC3=CC(=O)C(=CC3=O)CCc1cc2N(C)C,4.61559514
2709,BUVRIT,C22 H28 N2 O2,CN(C)c1cc2CCCC3=CC(=O)C(=CC3=O)CCCc1cc2N(C)C,4.65205839
2710,BUVRIV,C17 H14 N4 O1 S1,CSC1=NN2c3cc4ccccc4cc3C(=O)N(CC=C)C2=N1,5.807998029999999
2711,BUVTUK,C14 H11 Br1 Cl1 N1 O2,Cc1ccc(O)c(NC=C2C=C(Cl)C=C(Br)C2=O)c1,4.91600882
2712,BUVYOI,C20 H16 N2,CN1c2ccccc2C2=C1C1=Cc3ccccc3N1C=C2C,5.5486735199999995
2713,BUVYUO,C20 H15 N3 O1,CN1c2ccccc2C2=C1C1=Nc3ccccc3C(=O)N1C=C2C,5.5592859699999995
2714,BUVZEZ,C19 H15 N3,CN1c2ccccc2C2=C1C1=Nc3ccccc3N1C=C2C,5.689084279999999
2715,BUWCAZ,C15 H14 N4 S1,Cc1cccc(C)c1N1C(=S)NN=C1c1ccncc1,6.0275939
2716,BUWDUU,C29 H33 F2 N4 O4 P1,CCOP(=O)(CCCN1C=C(CN2CC(=Cc3ccc(F)cc3)C(=O)C(C2)=Cc2ccc(F)cc2)N=N1)OCC,6.12283375
2717,BUWFUU,C14 H16 N2 O2,CC1(C)CC(=O)C(=C(C1)Nc1ccccc1)N=O,6.06895521
2718,BUWGEH,C35 H33 B1 F2 N2 O2,CCC1=C(NC(=C1CC)C1=CC(O[B-](F)(F)O1)=C1[NH+]=C(C#Cc2ccccc2)C(=C1CC)CC)C#Cc1ccccc1,4.667296759999999
2719,BUWHUY,C21 H17 N1 O6 S2,COC(=O)C1(CC(Sc2ccccc2S1)N1C(=O)c2ccccc2C1=O)C(=O)OC,6.013171870000001
2720,BUWLIR,C30 H8 F14,Fc1c(F)c(c(F)c(F)c1c1ccc2ccc3c(ccc4ccc1c2c34)c1c(F)c(F)c(c(F)c1F)C(F)(F)F)C(F)(F)F,5.43356937
2721,BUWLOX,C23 H9 F7,Fc1c(F)c(c(F)c(F)c1c1ccc2ccc3cccc4ccc1c2c34)C(F)(F)F,5.517924659999999
2722,BUWPAK,C14 H14 N6 O1,COc1ccc(Nc2ncnc3C(=N)N(C)C=Nc23)cc1,5.882013
2723,BUWQIU,C39 H36 N2 S5,CCCCc1ccc(cc1)N1C(=S)N(c2ccc(CCCC)cc2)C(=C1C1=CC=C(S1)C1=CC=CS1)C1=CC=C(S1)C1=CC=CS1,4.88117825
2724,BUWQUH,C18 H20 F1 N3 O2,CCN(CC)c1ccc(C=NNC(=O)c2ccccc2F)c(O)c1,5.95303471
2725,BUWRUI,C20 H12 N2,c1ccc2c(c1)ccc1nnc3ccc4ccccc4c3c21,5.9693615399999995
2726,BUWTUI,C18 H18 O2,O=C1C=CC(=O)C2C1C1C3=C(C4CCC3C4)C2C21CC2,6.221611080000001
2727,BUWVEU,C20 H22 O2,O=C1C=CC(=O)C2C1C1C3=C(C4CCC3C4)C2C21CCCC2,6.04500919
2728,BUWYUP,C22 H16 O4,COC1(OC)C(=O)C=Cc2ccc3Oc4ccc5ccccc5c4c3c12,5.64962776
2729,BUXCAA,C40 H20 O3,O1c2ccc3ccccc3c2c2c1ccc1ccc3Oc4ccc5ccc6Oc7ccc8ccccc8c7c6c5c4c3c21,5.48418255
2730,BUXGAE,C36 H20 O2,O=C1c2ccccc2C(c2cc3ccccc3cc12)=C1c2ccccc2C(=O)c2cc3ccccc3cc12,5.4392837499999995
2731,BUXMIR,C42 H45 N2 O8 P1,COC(=O)C1C(C(=O)N(C2CCCCC2)C1=O)C1(C(=O)OC)C(=O)N(C2CCCCC2)C(=O)C1=P(c1ccccc1)(c1ccccc1)c1ccccc1,6.1489566799999995
2732,BUXNEO,C16 H16 N2 O2,CCOC(=O)C1=CC2=C3C(=CC=CC=C13)N=NC2(C)C,4.8515178400000005
2733,BUXQIV,C20 H22 O5,COC(=O)C=C1CC(C=C(CC1=CC(=O)OC)OC)c1ccccc1,6.25372051
2734,BUXRUK,C62 H46,c1ccc(cc1)C(=Cc1cc(C=C(c2ccccc2)c2ccccc2)c(cc1C=C(c1ccccc1)c1ccccc1)C=C(c1ccccc1)c1ccccc1)c1ccccc1,5.49261808
2735,BUXTIA,C38 H52 O4 S4,COCOc1c(cc(cc1C(C)(C)C)C1=C(SC(S1)=C1SC=CS1)c1cc(c(OCOC)c(c1)C(C)(C)C)C(C)(C)C)C(C)(C)C,5.25751171
2736,BUXXID,C25 H19 N3 O2,CCCCN1C(Oc2ccccc12)=CC=C1C(=O)c2ccccc2C1=C(C#N)C#N,4.766346199999999
2737,BUXXOJ,C25 H19 N3 O1 S1,CCCCN1C(Sc2ccccc12)=CC=C1C(=O)c2ccccc2C1=C(C#N)C#N,4.55192049
2739,BUXYAW,C27 H27 N3 O1,CCCCN(CCCC)c1ccc(cc1)C=C1C(=O)c2ccccc2C1=C(C#N)C#N,4.55545797
2740,BUXYEA,C21 H17 N3 O1 S1,CCN(CC)C1=CC=C(S1)C=C1C(=O)c2ccccc2C1=C(C#N)C#N,4.4506941399999995
2741,BUXYOI,C22 H18 N2 O1,CC1(C)CC(=O)[N-][N+]1=Cc1ccc2ccc3cccc4ccc1c2c34,4.76961158
2742,BUXZID,C26 H26 Br1 N1 O3,CC1C=CC2CN(C(=O)C32CCCC13)c1ccccc1OCC(=O)c1ccc(Br)cc1,6.32310954
2743,BUYANN10,C18 H16,C1CC2C3=CC4=CC=CC=C(C=C2C=CC=C3)C14,5.45479425
2744,BUYBII,C22 H23 N3 O2 S2,CCN(CC)c1ccc2C=C(C=NNC(=S)SCc3ccccc3)C(=O)Oc2c1,5.12199901
2745,BUYGIM,C25 H20 O7,COC(=O)C1=C(OC)OC2=C1C(=O)OC(=C2C(=O)c1ccc(C)cc1)c1ccc(C)cc1,5.693710210000002
2746,BUYGOS,C13 H9 N3 O1,NC(=O)c1cccc2nc3ccccc3nc12,5.684186220000001
2747,BUYJAH,C22 H6 Cl2 F14 N2 O4,FC(F)(F)C(F)(F)C(F)(F)CN1C(=O)c2cc(Cl)c3C(=O)N(CC(F)(F)C(F)(F)C(F)(F)F)C(=O)c4cc(Cl)c(C1=O)c2c34,5.50323051
2748,BUYJOU,C26 H16 N4,N#CC(C#N)=C1C=C(Cc2ccccc2)C(C=C1Cc1ccccc1)=C(C#N)C#N,4.3723253500000006
2749,BUYSUJ,C14 H14 N2 O1,Cc1ccc(cc1)N=Nc1ccc(O)cc1C,6.11875205
2750,BUYTUN,C26 H21 N3 O2,O=C(Nc1ccccc1Nc1ccccc1NC(=O)c1ccccc1)c1ccccc1,6.04174383
2751,BUYVEZ,C30 H31 N5,CN(C)C(=Nc1ccccc1Nc1ccccc1N=C(N(C)C)c1ccccc1)c1ccccc1,5.91493877
2752,BUYWEX,C21 H20 N4 O1,Cc1ccc(cc1)N=Nc1ccc(O)c(N=Nc2ccc(C)cc2)c1C,5.48391043
2754,BUZBAZ01,C16 H12 Cl2,Cc1cc2cc3cc(Cl)c(Cl)cc3cc2cc1C,5.42377327
2755,BUZKOW,C8 H15 N1 S2,CN(C)C(=S)C(=S)C(C)(C)C,5.74650029
2756,BUZKUC,C14 H19 N1 S2,CN(C)C(=S)C(=S)c1ccc(cc1)C(C)(C)C,5.242817560000001
2757,BUZROD,C24 H18 N4 O2,COc1cc2CCC3=CC(C(=CC3=C(C#N)C#N)CCc1cc2OC)=C(C#N)C#N,3.9440181500000002
2758,BUZRUJ,C24 H28 O6,COC(=O)c1cc2CCCc3cc(OC)c(CCCc1cc2C(=O)OC)cc3OC,5.828406560000001
2759,BVXIPO,C23 H24 N4 O5,CC(C)C(NC(=O)OCc1ccccc1)C(=O)ON=C1C(=NN(C1=O)c1ccccc1)C,5.683369880000001
2760,BXIMAM,C12 H9 Br1 N2 O3 S1,COC(=O)C=C1NC(=S)N(C1=O)c1ccc(Br)cc1,5.93180983
2761,BYMBPY,C22 H32 Cl1 N2 P1,CCCC[P+](CCCC)(CCCC)C(c1ccc(Cl)cc1)[C-](C#N)C#N,5.27764813
2762,BYMTNP,C17 H14 O1 S1,CS1=C(C(=O)c2ccccc2)c2ccccc2C=C1,5.346765049999999
2763,BYSSHY,C30 H30 Br2 N4 O4,CCCC1CC2=C(CC(CC)CC3=C1C(=O)N(Nc1ccc(Br)cc1)C3=O)C(=O)N(Nc1ccc(Br)cc1)C2=O,5.054514770000001
2764,BZAZCY,C7 H4 Br1 N3,Brc1ccccc1N=NC#N,6.047186099999999
2765,BZCBUO,C8 H4 O2,O=C1C(=O)c2ccccc12,6.629781849999999
2766,BZHTSC,C21 H17 N3 O1 S1,O=C(NC(=S)N(N=Cc1ccccc1)c1ccccc1)c1ccccc1,5.69643135
2767,BZILBY,C27 H20 N2 O1,O=C(N=C(c1ccccc1)C(=Nc1ccccc1)c1ccccc1)c1ccccc1,6.21290344
2768,BZOEPR10,C43 H50 N4 O2,CCC1=C(CC)C2=CC3=NC(=C(OC(=O)c4ccccc4)C4=C(CC)C(=C(N4)C=C4N=C(C=C1N2)C(=C4CC)CC)CC)C(=C3CC)CC,4.25830965
2769,BZSCLC,C18 H10 O4,O=C1OC(=C2C(=O)OC(=C12)c1ccccc1)c1ccccc1,4.8896137799999995
2770,CABBAL,C16 H11 Cl2 N1 O4 S1,CN1C(=C(O)c2ccccc2S1(=O)=O)C(=O)c1ccc(Cl)c(Cl)c1,6.197120829999999
2771,CABBEP,C16 H13 N1 O4 S1,CN1c2ccccc2C(=C(C(=O)c2ccccc2)S1(=O)=O)O,6.018069919999999
2772,CABGAO,C21 H10 F5 N1 O1,Fc1c(F)c(F)c(NC(=O)c2c3ccccc3cc3ccccc23)c(F)c1F,5.483910420000001
2773,CABGAR,C36 H28 I1 N1,Cc1cccc(I)c1c1c(C)cccc1N1Cc2ccc3ccccc3c2c2c(C1)ccc1ccccc21,6.13072505
2774,CABGES,C27 H27 N1 O1,CC(C)c1cccc(C(C)C)c1NC(=O)c1c2ccccc2cc2ccccc12,5.48799214
2775,CABGIY,C16 H13 N1 O2,CNC(=C1Oc2ccccc2C1=O)c1ccccc1,5.62622597
2776,CABGIZ,C30 H28 I1 N1 O7,CCOC(=O)C1(C(=O)c2ccccc2)c2ccc(C)c(c2NC1(C(=O)OC)C(=O)OC)c1c(C)cccc1I,6.0694994300000005
2777,CABGOE,C16 H13 N1 O1 S1,CNC(=C1Oc2ccccc2C1=S)c1ccccc1,4.98077192
2778,CABGUI,C23 H19 N1 O1,Cc1cccc(C)c1NC(=O)c1c2ccccc2cc2ccccc12,5.532346690000001
2779,CABJAT,C14 H14 Cl1 N3,CN1N=C2C=C(C=CC2=C1Cl)N1C(=CC=C1C)C,5.78813371
2780,CABKOI,C27 H19 N1 O1,Cc1ccc(cc1)c1c2cccc(CO)c2nc2c3cccc4cccc(c34)c12,5.7992903799999995
2781,CABPUQ,C33 H36 O6,CC(C)c1ccc(C)c2C(=O)Oc3c(ccc(C)c3C(=O)Oc3c(ccc(C)c3C(=O)Oc12)C(C)C)C(C)C,5.84908722
2782,CABQII,C20 H14 Cl2 N2 O1 S1,Clc1ccc(cc1)C(=S)NN(C(=O)c1ccc(Cl)cc1)c1ccccc1,6.26052336
2783,CABQUT,C26 H22 N2 O4,CC1COc2ccccc2N1C(=O)C(Cc1ccccc1)N1C(=O)c2ccccc2C1=O,6.28474149
2784,CABROO,C9 H17 N1 O4,[NH3+]C1CCC(O)C(O)CCC1C(=O)[O-],6.69372861
2785,CABVEH,C26 H20 S8,CC1=C(C=CS1)C1=C(SC(S1)=C1SC(=C(S1)C1=C(C)SC=C1)C1=C(C)SC=C1)C1=C(C)SC=C1,5.59602134
2786,CABWIM,C12 H9 Cl1 N2 O1,Oc1ccc(Cl)cc1N=Nc1ccccc1,6.08392147
2787,CABWIO,C19 H15 N1 O7,CCOC(=O)C1=C(O)OC2=C(C(=O)c3ccccc23)C1(C#N)C(=O)OCC,6.1388884699999995
2788,CABXEJ,C20 H20 N2 O1,COc1ccccc1C=CC1=CC(CC(C)(C)C1)=C(C#N)C#N,5.07492331
2789,CABYAG,C9 H6 O1 S1,S=C1Oc2ccccc2C=C1,5.881196650000001
2790,CACBAK01,C12 H12 O2,CC(=O)C=C(O)C=Cc1ccccc1,5.9666404
2791,CACFAO,C24 H18 N10 O1,O=C(NN=C(N1N=C(NN=C1c1ccccn1)c1ccccn1)c1ccccn1)c1ccccn1,5.68935638
2792,CACFEU,C33 H24 N2 S1,CN(C)c1ccc(cc1)C1=CC2=C(C3c4ccccc4C2(S1)c1ccccc31)c1ccc(cc1)C#N,5.01124867
2793,CACFIY,C33 H25 N1 O1 S1,CN(C)c1ccc(cc1)C1=CC2=C(C3c4ccccc4C2(S1)c1ccccc31)c1ccc(C=O)cc1,4.757094329999999
2794,CACFOE,C36 H25 N3 S1,CN(C)c1ccc(cc1)C1=CC2=C(C3c4ccccc4C2(S1)c1ccccc31)c1ccc(cc1)C=C(C#N)C#N,4.20334265
2795,CACGAR,C33 H24 N2 S1,CN(C)c1ccc(cc1)C1=C2C=C(SC32c2ccccc2C1c1ccccc31)c1ccc(cc1)C#N,4.6896101
2796,CACGEV,C33 H25 N1 O1 S1,CN(C)c1ccc(cc1)C1=C2C=C(SC32c2ccccc2C1c1ccccc31)c1ccc(C=O)cc1,4.64579977
2797,CACGIZ,C36 H25 N3 S1,CN(C)c1ccc(cc1)C1=C2C=C(SC32c2ccccc2C1c1ccccc31)c1ccc(cc1)C=C(C#N)C#N,3.80115838
2798,CACHIX,C13 H19 N1 S2,S=C1SC2(CCCCC2)NC2=C1CCCC2,5.6996967099999996
2800,CACMUP,C11 H9 N1 O3,COC(=O)C=C1C(=O)Nc2ccccc12,5.94378284
2801,CACRED,C13 H10 F2,FC1(F)C2=CC=CC=CC1=CC=CC=C2,4.87709654
2802,CACRII,C19 H16 F2 N2 O2,CN(C)N=C(C)C1=C(Oc2cc(F)c(F)cc2C1=O)c1ccccc1,5.973987470000001
2803,CACSIL,C24 H17 N3,N#Cc1cc(c2ccccc2)c(nc1Nc1ccccc1)c1ccccc1,5.92255796
2804,CACSUW,C8 H5 Br1 Cl3 N3,CC1=NN2C(=CC=NC2=C1Br)C(Cl)(Cl)Cl,6.13834424
2805,CACTEH02,C9 H7 Br1 Cl3 N3,CC1=NC2=C(Br)C(=NN2C(=C1)C(Cl)(Cl)Cl)C,6.12664335
2806,CACTEI,C28 H21 Cl1 N2 O4 S1,COc1ccc(cc1)N1C(=O)C(SC1=Nc1ccccc1OC)=CC1=CC=C(O1)c1ccccc1Cl,5.49397864
2807,CACTHP,C7 H6 O3 S1,CC(=O)C1=C(SC=C1)C(O)=O,6.5696447000000004
2808,CACXOV,C13 H13 N1 O5,COC(=O)c1ccc2C(=O)C3(CCCO3)ONc2c1,6.0314035
2809,CACYAI,C14 H15 N1 O4,COC(=O)c1ccc2C(=O)C3(CCCCO3)Nc2c1,5.98487203
2810,CACYIR,C31 H34 Cl1 N1 O4,COc1ccc(cc1OC)C1C2=C(CC(C)(C)CC2=O)N(C2=C1C(=O)CC(C)(C)C2)c1ccc(Cl)cc1,5.99004219
2811,CACYOU,C5 H13 N1 O3 S1,C[NH+](C)CCCS(=O)(=O)[O-],5.28390675
2812,CACYUD,C21 H17 Cl1 N2 O3,CC1=CC(=O)C(C(=O)O1)=C1CC(Nc2ccccc2N1)c1ccc(Cl)cc1,6.11766359
2813,CACZAK,C21 H17 Br1 N2 O3,CC1=CC(=O)C(C(=O)O1)=C1CC(Nc2ccccc2N1)c1cccc(Br)c1,6.103241550000001
2814,CACZEO,C23 H22 N2 O5,COc1ccc(cc1OC)C1CC(Nc2ccccc2N1)=C1C(=O)OC(=CC1=O)C,5.79738559
2815,CADCOB,C20 H16 S2,CSc1c2ccccc2c(SC)c2cc3ccccc3cc12,4.423482760000001
2816,CADCUH,C20 H16 S2,CSc1c2ccccc2cc2c(SC)c3ccccc3cc12,4.40525113
2817,CADFIZ,C28 H30 N2 S5,CCCCCCN1C2=C(SC3=C2SC=C3)C2=C1C1=C(S2)C2=C(N1CCCCCC)C1=C(S2)C=CS1,5.453705790000001
2818,CADGEV,C20 H16 N4 S3,CC1=C(SC(=C1)N1C=CN=C1)C1=CC=C(S1)C1=C(C)C=C(S1)N1C=CN=C1,5.550850430000001
2819,CADGIZ,C18 H12 Br2 S4,CC1=C(SC(=C1)Br)C1=CC=C(S1)C1=CC=C(S1)C1=C(C)C=C(Br)S1,5.277103909999999
2820,CADGOF,C28 H20 N2 S4,CC1=C(SC(=C1)c1ccncc1)C1=CC=C(S1)C1=CC=C(S1)C1=C(C)C=C(S1)c1ccncc1,4.86512354
2821,CADHEV,C23 H20 N4 O6,COC(=O)C1=C(C(=O)OC)C(=C2N=C3C=CC=CN3N=C2N1c1ccc(C)cc1)C(=O)OC,4.7707000299999995
2822,CADHEW,C20 H22 N2 O6,COC(=O)C(=CN(C)C)C(C(=O)OC)=C1CCN(C1=O)C(=O)c1ccccc1,6.067866749999999
2823,CADHIA,C16 H19 N1 O3,CCOC(=O)C=CC(=CN(C)C)C(=O)c1ccccc1,6.07711862
2824,CADJEY,C19 H15 Cl1 N2 O1,Cc1cccc2cc(C3CC(=O)c4ccccc4N3)c(Cl)nc12,5.95112991
2825,CADJIC,C19 H15 Cl1 N2 O2,Cc1cccc2cc(C3OC3C(=O)c3ccccc3N)c(Cl)nc12,6.06786675