,ID,formula,smiles,HOMO_LUMO_gap
8658,GADVIR,C20 H15 Cl1 N2 O1 S1,Clc1ccc(cc1)C(=O)NC(=S)N(c1ccccc1)c1ccccc1,6.1571201
8659,GADWIS,C21 H14 N2 O4,O=C1C=CC(=O)N1c1ccc(Cc2ccc(cc2)N2C(=O)C=CC2=O)cc1,6.1696373300000005
8660,GADWOY,C15 H12 N2,NN=Cc1c2ccccc2cc2ccccc12,5.2305724399999995
8662,GAFCUN,C15 H24 O1,CC(C)(C)C(=CC=CC=CC=O)C(C)(C)C,5.78405201
8663,GAFDAU,C19 H28 O1,CC(C)(C)C(=CC=CC=CC=CC=CC=O)C(C)(C)C,4.90675695
8664,GAFDEY,C21 H30 O1,CC(C)(C)C(=CC=CC=CC=CC=CC=CC=O)C(C)(C)C,4.61151342
8665,GAFDUO,C26 H44,CC(C)(C)C(=CC=CC=CC=CC=C(C(C)(C)C)C(C)(C)C)C(C)(C)C,5.1908438100000005
8666,GAFFEA,C34 H52,CC(C)(C)C(=CC=CC=CC=CC=CC=CC=CC=CC=C(C(C)(C)C)C(C)(C)C)C(C)(C)C,4.1301440199999995
8667,GAFFIE,C24 H42,CC(C)(C)C(=CC=CC=CC=C(C(C)(C)C)C(C)(C)C)C(C)(C)C,5.687451589999999
8668,GAFFUQ,C32 H50,CC(C)(C)C(=CC=CC=CC=CC=CC=CC=CC=C(C(C)(C)C)C(C)(C)C)C(C)(C)C,4.32524965
8669,GAFKAC,C16 H18 N4 O1 S1,C=CCN1C(=O)C(=NNC(=S)N2CCCC2)c2ccccc12,5.1454008
8670,GAFKEG,C20 H20 N4 O1 S1,O=C1N(Cc2ccccc2)c2ccccc2C1=NNC(=S)N1CCCC1,5.143496000000001
8671,GAFKIK,C18 H24 N4 O1 S1,CCCCCN1C(=O)C(=NNC(=S)N2CCCC2)c2ccccc12,5.2090754399999994
8672,GAFKOQ,C16 H16 N4 O1 S1,O=C1N(CC#C)c2ccccc2C1=NNC(=S)N1CCCC1,5.09587608
8673,GAFPEL,C54 H38 O4,COc1ccc(cc1)C1=C(c2ccc(OC)cc2)c2c3cc4ccccc4c4C(=C(c5ccc(OC)cc5)c(c5cc6ccccc6c1c25)c34)c1ccc(OC)cc1,3.6324477899999996
8674,GAFSOV,C14 H14 O5,COc1cc2C(=O)C(=C(C)C(=O)c2c(O)c1C)OC,5.894530230000001
8675,GAFXUJ,C25 H25 N3 O5,CC(C)c1ccc(cc1)C(C1=C(O)c2ccccc2OC1=O)C1=C(N)N(C)C(=O)N(C)C1=O,5.91711568
8676,GAFYES,C14 H4 O2 S8,O1C=C2SC3=C(SC(S3)=C3SC4=C(S3)SC3=COC=C3S4)SC2=C1,6.07113212
8677,GAFYOE,C28 H23 Cl1 O1 S2,CCSC1=C(C(=O)C=Cc2ccc(Cl)cc2)C(=C(Cc2ccccc2)S1)c1ccccc1,5.68037663
8678,GAFZAR,C29 H18 O2,O=C1Oc2ccccc2C=C1c1ccc(cc1)c1c2ccccc2cc2ccccc12,5.08390307
8679,GAFZEV,C31 H18 O2,O=C1Oc2ccccc2C=C1c1ccc(cc1)c1ccc2ccc3cccc4ccc1c2c34,5.22757919
8681,GAGQUD,C36 H20 S1,S1C(=CC=C1c1cc2ccc3cccc4ccc(c1)c2c34)c1cc2ccc3cccc4ccc(c1)c2c34,5.4773797
8682,GAGRAK,C40 H22 S2,S1C(=CC=C1c1cc2ccc3cccc4ccc(c1)c2c34)C1=CC=C(S1)c1cc2ccc3cccc4ccc(c1)c2c34,5.09587608
8683,GAGVAL01,C18 H16 N4,N1C=CC=Nc2ccccc2NC=CC=Nc2ccccc12,4.80525849
8684,GAGYIZ,C19 H16 F1 N1 O1,Fc1ccc2N(Cc3ccccc3)C3(CC=CC3)C(=O)c2c1,6.037389999999999
8685,GAGYOE,C35 H36 B1 F1 S1,C[S+](c1ccccc1)c1cccc2cccc(c12)[B-](F)(c1c(C)cc(C)cc1C)c1c(C)cc(C)cc1C,5.164448759999999
8686,GAHCIE,C19 H20 N2 O2,CCN(CC)c1ccc2C=C(C(=O)Oc2c1)c1ccc(N)cc1,5.44690295
8687,GAHKOS,C26 H22 N4 O3,C=CCN1N=C(C=CC1=O)c1ccc(Oc2ccc(cc2)C2=NN(CC=C)C(=O)C=C2)cc1,6.14297017
8688,GAHTOY,C24 H27 N3 O4,OCCCN1CCN(CC1)CCC(=O)Nc1cccc2C(=O)c3ccccc3C(=O)c12,5.5198294599999995
8689,GAHTUG,C15 H11 N1 O4,OC(=O)c1cccc(n1)C(=O)C=C(O)c1ccccc1,6.19739294
8690,GAJCOM,C11 H6 N4 O2 S1,O1C=CC=C1C1=NN2C(=NN=C2C2=CC=CO2)S1,6.00936228
8691,GAJKUA,C41 H38 N4 O3 S1,CCN(CC)c1ccc2c(Oc3cc(ccc3C32N(C(=O)c2ccccc32)c2ccc(c(O)c2)C2=Nc3ccccc3S2)N(CC)CC)c1,5.9486808799999995
8692,GAJMAH,C27 H23 N2 O2 P1,Oc1ccc(NC(=O)CN=Cc2ccccc2P(c2ccccc2)c2ccccc2)cc1,6.044464959999999
8693,GAJRUG,C33 H25 N3,C(N(Cc1ccccn1)Cc1ccc2c3cccc4cccc(c5cccc1c25)c34)c1ccccn1,4.89070223
8695,GAJTAM,C10 H12 N2 O3 S1,CN1C=[N+](Cc2cc(C)ccc12)S(=O)(=O)[O-],7.06598035
8696,GAJTEQ,C5 H5 N1 O3 S1,O=S(=O)([O-])[n+]1ccccc1,6.7794444700000005
8697,GAJTIX,C32 H23 Br1 N2 O2,Brc1ccc(cc1)C1=C2C(=O)N(Cc3ccccc3)C(=C2C(=O)N1Cc1ccccc1)c1ccccc1,4.79655084
8698,GAJTOD,C32 H23 I1 N2 O2,Ic1ccc(cc1)C1=C2C(=O)N(Cc3ccccc3)C(=C2C(=O)N1Cc1ccccc1)c1ccccc1,4.662126600000001
8699,GAJWET,C18 H18 Br4 O4,CCCCC1=C(Br)C(OC1=O)=C(Br)C(Br)=C1OC(=O)C(=C1Br)CCCC,5.99657293
8700,GAKDOO01,C34 H34 O6 S2,CCCCCCC(=O)OC1=C(C(=O)c2cc3C(=C(C(=O)c3cc12)C1=CC=CS1)OC(=O)CCCCCC)C1=CC=CS1,4.09204808
8701,GAKFAC,C34 H34 O6 S2,CCCCCCC(=O)OC1=C(C(=O)c2cc3C(=O)C(=C(OC(=O)CCCCCC)c3cc12)C1=CC=CS1)C1=CC=CS1,4.22511175
8702,GAKGOO,C12 H13 N1 O2,CC1=C2N3CCCC=C3C(=C2OC1=O)C,5.87412169
8704,GAKSOA,C26 H22 O4,CCc1ccc(c(OC(C)=O)c1)c1c2ccccc2c(OC(C)=O)c2ccccc12,5.38894269
8705,GAKSUG,C26 H21 N3,Nc1ccccc1C1(Nc2ccccc2C(=N1)c1ccccc1)c1ccccc1,5.911673410000001
8706,GAKXAS,C11 H2 Cl5 N3 O1,Clc1ccnc2N3C(=O)C(=C(Cl)N=C3C(=C(Cl)c12)Cl)Cl,5.4795566099999995
8707,GAKZAU,C30 H34 O8,COc1cc(C=Cc2cc(OC)c(C=Cc3cc(OC)c(OC)c(OC)c3)cc2OC)cc(OC)c1OC,5.430848220000001
8708,GALCIG,C22 H17 N1 O2,CCc1ccccc1OC(=O)c1c2ccccc2nc2ccccc12,5.60636166
8709,GALCOM,C22 H17 N1 O2,Cc1ccc(C)c(OC(=O)c2c3ccccc3nc3ccccc23)c1,5.65887964
8710,GALDOP,C28 H34 N4 O6 S1,CCOC(=O)C1C(=C(NC(C)(C)CC(C)(C)C)OC2=C1C(=O)N1N=C(SC1=N2)c1ccccc1)C(=O)OCC,5.600919380000001
8711,GALJEJ,C20 H21 N3 Se1,CN1C=CN(C1=[Se])C(C)(C)C(=Nc1ccccc1)c1ccccc1,6.173174810000001
8712,GALPAN,C38 H26 N2 S1,S1N=C2C(=CC=C(c3ccc(cc3)C(c3ccccc3)=C(c3ccccc3)c3ccccc3)C2=N1)c1ccccc1,5.03002453
8713,GALRAP,C39 H28 N2 S1,Cc1ccc(cc1)C1=CC=C(c2ccc(cc2)C(c2ccccc2)=C(c2ccccc2)c2ccccc2)C2=NSN=C12,5.51438718
8714,GALRES,C33 H16 O1 S4,O=C1c2ccccc2c2c1c1c3ccccc3C(=C3SC=CS3)c1c1c3ccccc3C(=C3SC=CS3)c21,4.3870195
8715,GALRET,C26 H18 N4,c1ccc2c(ccnc2c1)C=Nc1ccc(cc1)N=Cc1ccnc2ccccc12,5.6305798
8716,GALTIW,C26 H19 Br1 N4,Brc1ccc(cc1)N1C(=NN(N=C1c1ccccc1)c1ccccc1)c1ccccc1,5.8697678699999996
8717,GALZEB,C26 H26 O4,COc1ccc(C=Cc2ccc(cc2)C=Cc2ccc(OC)c(OC)c2)cc1OC,5.116556729999999
8718,GAMLOV,C22 H26 O7,CC(C)C1=C(O)C(=O)C2=C(C(CC3C4(C)CCCC23COC4=O)OC(C)=O)C1=O,6.17399116
8719,GAMMIR,C20 H15 N3 O1,Nc1cccc2C=CC3(Nc4cccc5cccc(N3)c45)C(=O)c12,4.80471426
8720,GAMMOX,C10 H8 N2 O1,Nc1cccc2C=CC(=O)C(=N)c12,5.127713400000001
8721,GAMNAK,C20 H15 N3 O1,Nc1cccc2CC(C(=O)c12)=C1Nc2cccc3cccc(N1)c23,5.94514341
8722,GAMNEO,C20 H16 N4,Nc1cccc2C=CC3(Nc4cccc5cccc(N3)c45)C(=N)c12,4.8762802
8723,GAMNIS,C20 H15 N3 O1,Nc1cccc2c1C(=O)C=CC12Nc2cccc3cccc(N1)c23,5.107576980000001
8724,GAMNOY,C20 H16 N4,Nc1cccc2cccc(N=Nc3cccc4cccc(N)c34)c12,4.27844608
8725,GAMNOZ,C15 H15 N3 O2,CCOC(=O)C(=NNc1ccccc1)c1ccccn1,5.85371315
8726,GAMVIC,C8 H3 Br2 N1 O2,Brc1cc2NC(=O)C(=O)c2cc1Br,5.990586410000001
8727,GAMWUO,C32 H12,C1=CC2=C3C(=C1)C1=C4C5=C(C=C1)C=CC1=C5C5=C6C7=C1C=CC=C7C1=CC=C2C(=C61)C3=C45,5.252885770000001
8728,GANDOO,C9 H6 Cl4 O4 S1,COC(=O)[C-]([S+]1C(=C(Cl)C(=C1Cl)Cl)Cl)C(=O)OC,6.27576173
8729,GANGEH,C10 H12 N4 O1 S1,CC(=O)Nc1ccc(cc1)C=NNC(N)=S,5.676294919999999
8730,GANPUJ,C22 H23 Br1 N2 O1,CC1=C(CCC(C)(C)C1)C[n+]1c2ccccc2nc2c([O-])c(Br)ccc12,4.26021444
8731,GANSOE,C25 H27 N1 O2,CN(C)C12CC3CCCC3(O)C1C(=O)C(=C2c1ccccc1)c1ccccc1,6.443928100000001
8732,GANSUK,C18 H16 N2 O2,Cc1ccc2N=C3N(CCC3(O)C(=O)c2c1)c1ccccc1,5.79330387
8733,GANTAR,C18 H15 Br1 N2 O2,Cc1ccc2N=C3N(CCC3(O)C(=O)c2c1)c1ccc(Br)cc1,5.52499962
8734,GANYAV,C27 H20 N2,N(c1ccccc1)C1=C(c2ccccc2)c2ccccc2C1=Nc1ccccc1,4.868661019999999
8735,GANZUT,C41 H23 F5 N2,Fc1c(F)c(F)c(c(F)c1F)C1=C2NC(=C(c3ccccc3)c3cccc(c3)c3ccccc3C(=C3C=CC1=N3)c1ccccc1)C=C2,4.0808914099999996
8736,GAPBIL,C18 H14 O4,COc1ccc(cc1)C(=O)c1cc(O)c2ccccc2c1O,5.96310292
8737,GAPCOQ,C34 H22 N2 S1,S=C(N1c2ccc3ccccc3c2c2c(ccc3ccccc23)N=C1c1ccccc1)c1ccccc1,5.82105949
8738,GAPDAF,C15 H14 N4 O1 S2,COc1ccc(CC2=NNC(=S)N2N=CC2=CC=CS2)cc1,5.621327930000001
8739,GAPGUB,C14 H12 Cl1 N3 S2,NC(=S)N1N=C(CC1C1=CC=CS1)c1ccc(Cl)cc1,5.69643135
8740,GAPHAG,C17 H14 N2 O1,COc1ccc2Nc3c(C)c4ccncc4cc3c2c1,5.5342515
8741,GAPHEM,C6 H8 N1 O3 P1,[NH3+]c1ccc(cc1)P(O)(=O)[O-],4.70566482
8742,GAPKEP,C13 H14 N2 O1 S1,CC(=O)C1=C(C)NC(=S)N(C1)c1ccccc1,6.197392939999999
8743,GAPKOZ,C20 H17 Cl1 O3,CC1(C)Oc2ccc(c(O)c2C=C1)C(=O)C=Cc1ccc(Cl)cc1,6.033308289999999
8744,GAPLOA,C15 H11 F1 N4 O1 S1,Fc1ccc2NC(=O)C(=NNC(=S)Nc3ccccc3)c2c1,5.18023137
8745,GAPPEU,C27 H22 N8,C(N1N=Nc2ccccc12)N1C(N(CN2N=Nc3ccccc23)c2ccccc12)c1ccccc1,6.2259649
8746,GAPQAS,C26 H18 S2,S1C=CC=C1C=Cc1c2ccccc2c(C=CC2=CC=CS2)c2ccccc12,5.22866764
8747,GAPQOF,C21 H17 Cl1 O3,CCOC1=C(C(=O)c2cccc(Cl)c2)C(C=C1)=C(O)c1ccccc1,5.38404465
8748,GAPROG,C16 H16 O5,COc1cc(OC)c(C=CC(=O)C2=CC=CO2)cc1OC,5.51819678
8749,GAPSEY,C30 H29 F3 N1 O4 P1,CCOP(=O)(OCC)C(N1CC(=Cc2ccc(F)cc2)C(=O)C(C1)=Cc1ccc(F)cc1)c1ccc(F)cc1,6.06895521
8750,GAPSOH,C19 H18 Br4 N2 O2,CC(C)(C[NH+]=Cc1cc(Br)cc(Br)c1[O-])C[NH+]=Cc1cc(Br)cc(Br)c1[O-],5.19683032
8751,GAPSUN,C9 H11 N3 O2 S1,COc1ccc(O)c(C=NNC(N)=S)c1,5.81480087
8752,GAPVOL,C18 H12 N2,CN1C(=Cc2ccccc12)C#Cc1ccc(cc1)C#N,5.60527321
8754,GAPWAX,C10 H13 N3 O2 S1,CCOc1cccc(C=NNC(N)=S)c1O,5.97507593
8755,GAPYED,C19 H20 N4,Cc1ccc(cc1)N=NC1=C(C)N(N=C1C)c1ccc(C)cc1,6.09371757
8756,GAPYIH,C22 H20 O1,Cc1ccc(cc1)C=C1CC=CC(=Cc2ccc(C)cc2)C1=O,5.6096270200000005
8757,GAPYON,C22 H22 O5,COc1ccc(cc1)C=C1OC(C)(C)OC(=Cc2ccc(OC)cc2)C1=O,5.49914881
8758,GAQDUZ,C32 H37 N1 O8,CCOC(=O)C1C(C2CCCN2C21C(=O)c1cccc3cccc2c13)C1OC2OC(C)(C)OC2C2OC(C)(C)OC12,5.885822579999999
8759,GAQGIP,C30 H36 N1 O6 P1 S1,COC(=O)C1=C(C(=O)OC)P2(=NC1=S)Oc1c(Cc3cc(C)cc(c3O2)C(C)(C)C)cc(C)cc1C(C)(C)C,5.24635504
8760,GAQHAI,C32 H42 N1 O7 P1 S1,CCOC(=O)C(C(N)=S)=C(C(=O)OCC)P1(=O)Oc2c(Cc3cc(C)cc(c3O1)C(C)(C)C)cc(C)cc2C(C)(C)C,5.985960479999999
8761,GAQHEN,C9 H9 N3 O2 S1,NC(=O)NC(=S)NC(=O)c1ccccc1,6.36419873
8762,GAQHIR,C16 H10 N2 S1,S1C(=Cc2nc3ccccc3nc12)c1ccccc1,5.756568509999999
8763,GAQKAM,C16 H15 N3 O2,CC(NNC(=O)c1ccncc1)=CC(=O)c1ccccc1,6.20991018
8764,GAQLIV,C12 H12 F2 N2 O3,CCOC(=O)C(=NNc1ccc(F)cc1F)C(C)=O,6.08827529
8765,GAQQUL,C17 H14 N2 O2,CN1C(=O)C(Nc2ccccc12)=CC(=O)c1ccccc1,5.59248385
8766,GAQTUO,C24 H20 N2 O3 S1,CN1CC2=C(C(=O)c3cc(C)ccc13)c1ccccc1N2S(=O)(=O)c1ccccc1,5.977252839999999
8767,GAQVUR,C22 H16 O1,Cc1ccc(cc1)C=C1c2ccccc2C(=O)c2ccccc12,5.66649882
8768,GAQWAX,C7 H6 O5,COC1=C(OC)C(=O)C(=O)C1=O,6.22242742
8769,GARFOV,C11 H12 N4 O1 S1,COc1cccc(C=NN2C(=S)NN=C2C)c1,5.8809245400000005
8770,GARFUB,C11 H12 N4 O1 S1,COc1ccc(cc1)C=NN1C(=S)NN=C1C,5.81697779
8771,GARKUH,C16 H14 Cl1 N3 O3 S1,CN1c2ccccc2C(=NN=Cc2ccccc2O)C(Cl)S1(=O)=O,5.97317113
8772,GARMAP,C26 H20 N2 O1,O=C(C=Cc1ccc(cc1)N(c1ccccc1)c1ccccc1)c1ccccn1,5.18648999
8773,GARMET,C17 H18 N2 O3,CCOc1cccc(C=Nc2ccc(cc2)C(C)=NO)c1O,6.07548594
8774,GARPAS,C21 H21 N1 O1,CC(C)(C)c1cccc(C=Nc2cccc3ccccc23)c1O,5.7402416700000005
8775,GARTAU,C16 H27 Br1 N2 O2 S1,CC1=C(Br)C(C(CN2CCCCC2)S1(=O)=O)N1CCCCC1,6.45454053
8776,GARVUQ,C20 H12 Cl2,Clc1ccc(C=CC#CC#CC=Cc2ccc(Cl)cc2)cc1,5.55275523
8777,GARWEE,C12 H9 F1 N2 O1,Oc1ccc(cc1)N=Nc1ccc(F)cc1,6.215896690000001
8778,GARXEE,C27 H19 Br1 O3,Cc1ccc(cc1)C1=CC(=O)CC(c2ccc(Br)cc2)C21C(=O)c1ccccc1C2=O,6.18052188
8779,GARYEF,C35 H25 B1 F2 N2 O2,F[B-]1(F)OC(=CC(O1)=C1[NH+]=CC(=C1c1ccccc1)c1ccccc1)C1=C(c2ccccc2)C(=CN1)c1ccccc1,5.248259829999999
8780,GARYIJ,C39 H33 B1 F2 N2 O6,COc1ccc(cc1)C1=CNC(=C1c1ccc(OC)cc1)C1=CC(O[B-](F)(F)O1)=C1[NH+]=CC(=C1c1ccc(OC)cc1)c1ccc(OC)cc1,5.066487779999999
8781,GARYOP,C15 H17 B1 F2 N2 O6,COC1=CNC(=C1OC)C1=CC(O[B-](F)(F)O1)=C1[NH+]=CC(=C1OC)OC,5.4104396900000005
8782,GARZIK,C17 H11 Br1 O1,Brc1ccc2c(c1)C(=O)C1=C2c2ccccc2CC1,5.4207800200000005
8783,GASFOY,C28 H22 O2,Cc1ccc(cc1)C1=CC=C(O1)c1ccc(cc1)C1=CC=C(O1)c1ccc(C)cc1,5.33506415
8784,GASFUE,C30 H26 O2,Cc1cc(C)cc(c1)C1=CC=C(O1)c1ccc(cc1)C1=CC=C(O1)c1cc(C)cc(C)c1,5.36635725
8786,GASGIT,C8 H6 Br1 N1 S2,CN1C=CC2=C(SC(=C2)Br)C1=S,5.7524868
8787,GASGOZ,C8 H7 N1 S2,CN1C=CC2=C(SC=C2)C1=S,5.85262469
8788,GASHAM,C8 H6 I1 N1 S2,CN1C=CC2=C(SC(=C2)I)C1=S,5.7622829
8789,GASHIS,C48 H30 O2,O1c2ccccc2C(=Cc2ccc3ccccc3c2c2c(ccc3ccccc23)C=C2c3ccccc3Oc3ccccc23)c2ccccc12,5.68255354
8790,GASKIU,C12 H14 O3,COc1ccc(cc1)C(=C(C)O)C(C)=O,6.89645343
8791,GASKOA,C14 H14 N4 O1,CC1=NC2=[N+](C(=C1)C)C(=NN2Cc1ccccc1)[O-],5.31764887
8792,GASPOF,C17 H18 N2 O1,CN(C)c1ccc2Nc3c(C)ccc(C)c3c2c1C=O,5.50404685
8793,GASQAT,C19 H21 N1 O4,COc1ccc(cc1OC)C(O)CNC(=O)C=Cc1ccccc1,6.49971143
8794,GASRAW,C12 H18 N2 O2,CCC(C)C([NH2+]Cc1ccncc1)C(=O)[O-],6.410458089999999
8795,GASVOM,C28 H26 Cl1 I1 O1,CCCCC(I)=C1OC(C)(c2ccccc2Cl)C(=C1c1ccccc1)c1ccccc1,6.275489619999999
8796,GASWIG,C17 H16,CCCc1c2ccccc2cc2ccccc12,5.50186994
8797,GASWIH,C21 H30 O3,COC1CCC(C)(C)C(=C1C)C=CC(C)=CC=CC(C)=CC(O)=O,5.176421769999999
8798,GASWOO,C29 H21 N3,N1c2cc(ccc2c2ccc(cc12)c1ccncc1)N(c1ccccc1)c1ccccc1,5.7543916
8799,GASWUS,C6 H7 N1 Se1,CN1C=CC=CC1=[Se],5.53588418
8800,GASXIJ,C29 H18 O2 S1,O=C1OC(c2ccccc12)=C1c2ccccc2C(=C1c1ccccc1)Sc1ccccc1,4.99492184
8801,GASZOR,C31 H22 O6,COC(=O)C1=C2c3ccccc3C(=C3C(=O)CC(C(=O)OC)(C1=O)C23c1ccccc1)c1ccccc1,5.898067709999999
8802,GATBIN,C13 H5 Br3 O4,BrC1=CC=C(O1)C(C1=CC=C(Br)O1)=C1OC(=O)C(=C1)Br,4.804714259999999
8803,GATDEM,C19 H22 O3,CC(C)C1=Cc2cc3c(CCCC3(C)C)c(O)c2C(=O)C1=O,5.57343589
8804,GATFAL,C27 H26 N4 O6,COC(=O)C1(C)NC(C2C1C(=O)N(C)C2=O)c1ccccc1NC1=CC(=O)N(Cc2ccccc2)C1=O,6.1203847300000005
8805,GATFOY,C28 H28 N2 O2 S6,CCCCSC1=C(SCCCC)SC(S1)=C1Sc2c(Oc3ccccc3)nnc(Oc3ccccc3)c2S1,5.36526879
8806,GATFUE,C16 H18 Cl2 N2 S6,CCCCSC1=C(SCCCC)SC(S1)=C1Sc2c(Cl)nnc(Cl)c2S1,5.2376474
8807,GATGEP,C18 H24 N2 O2 S6,CCCCSC1=C(SCCCC)SC(S1)=C1Sc2c(OC)nnc(OC)c2S1,5.60745012
8808,GATJIX,C19 H18 Br1 N3,Brc1ccc(cc1)c1nc(nc2ccccc12)N1CCCCC1,5.80255574
8809,GATKUH,C12 H17 N3 S1,CCN(CC)C(=S)N=C(N)c1ccccc1,6.13616733
8810,GATNIB,C18 H13 N3 O2,CC1=CC(=O)Oc2cc(NC(=Nc3ccccc3)C#N)ccc12,5.79357599
8811,GATNIY,C15 H16 N2,CN(N=C(C)c1ccccc1)c1ccccc1,5.39220806
8812,GATNOE,C20 H18 N2,CN(N=C(c1ccccc1)c1ccccc1)c1ccccc1,6.01426032
8813,GATNOG,C25 H15 F3 N2 O2,FC(F)(F)c1cccc(c1)c1cc2C(=O)c3ccc(OCc4ccccc4)cc3c2nn1,5.856978509999999
8814,GATNUK,C25 H20 N2,c1ccc(cc1)N(N=C(c1ccccc1)c1ccccc1)c1ccccc1,6.03004293
8815,GATNUM,C19 H13 Cl1 N2 O2,Cc1cc2C(=O)c3ccc(OCc4cccc(Cl)c4)cc3c2nn1,6.11875204
8816,GATPAU,C22 H14 F6 N2 O2,FC(F)(F)CCCOc1ccc2C(=O)c3cc(nnc3c2c1)c1cccc(c1)C(F)(F)F,5.86949575
8817,GATSUP01,C34 H37 N5 O2,CC1=C(C)C(NC1=O)=CC1=NC(=CC2=C(C)C(=C(N2)C=C2N=C(C=C3NC(=O)C(=C3C)C)C(=C2C)C)C)C(=C1C)C,3.6044200699999998
8818,GATVEC,C30 H21 N1,c1ccc(cc1)C1=CC2=C(c3ccccc3)c3ccccc3N2C(=C1)c1ccccc1,5.06839258
8819,GATXEH,C46 H32 N2 S2,S1C(=Cc2cc3SC(=Cc3cc12)c1ccc(cc1)N(c1ccccc1)c1ccccc1)c1ccc(cc1)N(c1ccccc1)c1ccccc1,5.176966
8820,GATZUX,C26 H20 N2 S1,S=C(N(c1ccccc1)C(=Nc1ccccc1)c1ccccc1)c1ccccc1,6.096166589999999
8821,GAVDUF,C49 H44 N4 O3,CCC1CN2CCC1CC2C(Oc1nnc(OC(c2cccc3ccccc23)c2cccc3ccccc23)c2ccccc12)c1ccnc2ccc(OC)cc12,6.41998208
8822,GAVFIU,C36 H22 O2,O1C(=Cc2ccc3C=C(OC45c6ccccc6C1(c1ccccc41)c2c35)c1ccccc1)c1ccccc1,5.31764886
8824,GAVJET,C7 H15 N1 O4 S1,O=S(=O)([O-])CCC[NH+]1CCOCC1,5.9685452
8825,GAVJUJ,C16 H16 N2 O3,CCOc1ccc(cc1)N=Nc1ccc(O)c(c1)C(C)=O,5.9919469900000015
8826,GAVKIY,C22 H24 Cl1 N1 O5,COc1cc(OC)c(c(O)c1CN1CCOCC1)C(=O)C=Cc1ccccc1Cl,6.0471861
8827,GAVKUK,C14 H7 Cl1 O3,Oc1ccc(Cl)c2C(=O)c3ccccc3C(=O)c12,6.05262837
8828,GAVMIC,C23 H32 N2 O1,CN(C)c1ccc(cc1)N=Cc1cc(cc(c1O)C(C)(C)C)C(C)(C)C,5.67847184
8829,GAVWIM,C16 H10 N2 O2,O=C1C2=C(Nc3ccccc13)C(=O)c1ccccc1N2,5.287172119999999
8830,GAVXEI,C16 H14 N2 O2,COC(=O)C1=CN(C)C=CC1=C(C#N)c1ccccc1,5.87248901
8831,GAVXIL,C22 H22 N6 S1,CCN(CC)c1ccc(cc1)C=NC1=NC(=C(S1)N1C=NC=N1)c1ccccc1,5.467583589999999
8832,GAVYIL,C28 H28 N2 O3 S2,CCC12CC=C3N(C(=O)OC)c4cc(OC)ccc4C43C(CN(C14)C(=S)C=C2)Sc1ccccc1,6.13126928
8833,GAVZOU,C14 H16 N6,CN(N=CC=NN(C)c1ccccn1)c1ccccn1,5.88255722
8834,GAWBUD,C23 H20 N2 O4,CCOC(=O)C1(C(=O)OCC)C(=Cc2nc3ccccc3nc12)c1ccccc1,5.79684136
8835,GAWCAK,C28 H19 N3 O2,CN1C(=O)C=C(c2ccccc2)C2(C1=O)C(=Cc1nc3ccccc3nc21)c1ccccc1,5.8115355
8836,GAWFIU,C36 H31 N1,Cc1ccc(cc1)N(c1ccc(C)cc1)c1ccc(C=CC=C(c2ccccc2)c2ccccc2)cc1,5.1160125
8837,GAWGAN,C41 H35 N3 O5,COc1ccc(cc1)C1=C2C(=O)C(=O)N(c3ccc(C)cc3)C2(N(C(=O)N1c1ccc(C)cc1)c1ccc(C)cc1)c1ccc(OC)cc1,5.866774620000001
8838,GAWGAP,C24 H18 N2 O2,CCOC(=O)C1=C(c2ccccc2)c2ccccc2N2C1=Cc1cccnc21,5.34676505
8839,GAWHES,C23 H19 N3 O4 S1,Cc1ccc(cc1)S(=O)(=O)Nc1ccc(cc1)C(=O)C=C1Nc2ccccc2NC1=O,5.58432044
8840,GAWNEA,C20 H14 N4,N1C2=CC=C1C=C1C=CC(=N1)C1=CC=C(N1)C=CC1=NC(=C2)C=C1,3.96170555
8841,GAWNEX,C11 H14 O3 S2,CCOC1=C2SCCCSC2(C)C(=O)C1=O,5.71003704
8842,GAWPAW,C16 H11 N5 S2,N(c1ccccc1)C(=NC1=NC=CS1)c1cccc2N=NSc12,5.8292228999999995
8843,GAWQEB,C18 H12 O3,CC1=COC2=C1C(=O)C(=O)c1c2ccc2c(C)cccc12,5.14540079
8844,GAWRIF,C10 H4 S8,S1C=CSC2=C1SC(S2)=C1SC2=C(SC=CS2)S1,5.68717948
8845,GAWSAZ,C21 H19 N3 O3,COc1cc(ccc1OCc1ccccc1)C=NNC(=O)c1ccncc1,6.1709979
8846,GAWZUC,C32 H18 Cl2 O4,Clc1ccc(cc1)C#CC1=C(OC(=O)C(=C1c1ccc(Cl)cc1)OC(=O)c1ccccc1)c1ccccc1,5.76690883
8847,GAXCAM,C14 H13 Br1 N2 O1,Brc1ccc(NCCC(=O)c2ccccc2)nc1,6.17317481
8848,GAXKIC,C23 H24 N4 O4 S2,COc1ccc(NC(=S)NNC(=O)C(Cc2ccccc2)NS(=O)(=O)c2ccccc2)cc1,5.94242227
8849,GAXLEW01,C14 H6 Cl2 O4,Oc1c(Cl)c(Cl)c(O)c2C(=O)c3ccccc3C(=O)c12,5.9690894199999995
8850,GAXLEZ,C25 H22 N2 O3 S1,Cc1ccc(cc1)S(=O)(=O)NC1C(=O)c2ccccc2C1(C)C1=CNc2ccccc12,6.03412463
8851,GAXMIE,C34 H23 F3 N2,FC(F)(F)c1ccc(cc1)C=C(C#N)c1ccc(cc1)c1ccc(cc1)N(c1ccccc1)c1ccccc1,4.82185743
8852,GAXQUU,C21 H21 N1 O2,Cc1cccc(C)c1N=C(C=Cc1ccccc1)C1CCC(=O)O1,6.04283228
8853,GAXSIK,C35 H22 N2,c1ccc(cc1)N1C(=Nc2c3ccccc3c3ccccc3c12)c1c2ccccc2cc2ccccc12,5.48717579
8854,GAXSOQ,C37 H22 N2,c1ccc(cc1)N1C(=Nc2c3ccccc3c3ccccc3c12)c1ccc2ccc3cccc4ccc1c2c34,5.60282418
8855,GAYCEO,C11 H13 N1 O2,O=C([O-])C1[NH2+]CC(C1)c1ccccc1,6.89808611
8856,GAYGIW,C23 H18 N2 O2,O=C1c2ccccc2C(=O)C2=C1N1CCCC1C2(Cc1ccccc1)C#N,5.34458814
8857,GAYQOP,C48 H27 P1,c1cc2ccc3ccc(P(c4ccc5ccc6cccc7ccc4c5c67)c4ccc5ccc6cccc7ccc4c5c67)c4ccc(c1)c2c34,5.38594944
8858,GAYTAB,C28 H24,C1C2=CC=CC=C1C1=CC=CC=C(C1)C1=CC=CC=C(C1)C1=CC=CC=C2C1,5.132339330000001
8860,GAYZOY,C13 H9 B1 F3 N1 O1,Fc1ccc(cc1)[N+]1=Cc2ccccc2O[B-]1(F)F,6.06868309
8861,GAZCIV,C28 H32 N2 O10,COC(=O)C(=CN(C)C)C(=CC(=O)c1ccc(cc1)C(=O)C=C(C(=O)OC)C(=CN(C)C)C(=O)OC)C(=O)OC,5.44499815
8862,GAZCOC,C27 H15 N1 S3,S1C(=Cc2c1c1SC(=Nc1c1Sc3ccccc3c21)c1ccccc1)c1ccccc1,5.4893527
8863,GAZGUM,C31 H31 N3 O3,CCOC(=O)c1cc2C(Nc3ccc(C)cc3C)Oc3ccccc3c2nc1Nc1ccc(C)cc1C,5.128801849999999
8864,GAZWEL,C35 H26 Cl4 N2 O2 S1,CN1CC(=Cc2cccc(Cl)c2Cl)C(=O)C2(C1)C(C1CSCN1C12C(=O)c2cccc3cccc1c23)c1cccc(Cl)c1Cl,5.80255575
8865,GAZWIP,C35 H28 F2 N2 O2 S1,CN1CC(=Cc2ccc(F)cc2)C(=O)C2(C1)C(C1CSCN1C12C(=O)c2cccc3cccc1c23)c1ccc(F)cc1,5.92255796
8866,GAZWOV,C35 H28 Br2 N2 O2 S1,CN1CC(=Cc2ccc(Br)cc2)C(=O)C2(C1)C(C1CSCN1C12C(=O)c2cccc3cccc1c23)c1ccc(Br)cc1,5.937796329999999
8867,GAZXIQ,C14 H10 Cl1 N3,Clc1ccc(NN=Cc2ccc(cc2)C#N)cc1,5.631396130000001
8868,GAZXOW,C14 H10 Br1 N3,Brc1ccc(NN=Cc2ccc(cc2)C#N)cc1,5.61915102
8869,GAZXUC,C14 H10 I1 N3,Ic1ccc(NN=Cc2ccc(cc2)C#N)cc1,5.645001819999999
8871,GEBLIK,C46 H30 N2 O4,COC(=O)C(C#Cc1ccc(cc1)N1c2ccccc2c2ccccc12)=C(C#Cc1ccc(cc1)N1c2ccccc2c2ccccc12)C(=O)OC,4.74675401
8872,GEBPOU,C29 H24 O6,CCOC(=O)C1(CC2=C(C1)C(=O)C1=C(C3c4ccccc4C1c1ccccc31)C2=O)C(=O)OCC,5.25968862
8873,GEBTAI,C19 H30 O3,CCCCCCCCCCCCC1=CC(=O)C=C(OC)C1=O,6.50624217
8874,GEBTEO,C10 H4 S6,S1C=CC2=C1SC(S2)=C1SC2=C(S1)C=CS2,5.77534436
8875,GEBTIS,C26 H36 S8,CCCCCCCCSC1=CC2=C(S1)SC(S2)=C1SC2=C(S1)C=C(SCCCCCCCC)S2,5.59983093
8876,GEBTUE,C25 H29 Cl1 N4 O4,CCOc1ccccc1N1CCN(CC1)CC(O)CN1C(=O)NC(=Cc2ccc(Cl)cc2)C1=O,5.48608734
8877,GEBVAM,C23 H20 Br1 N5 O1 S1,OC(CCC1=NN(N=N1)c1ccc(Br)cc1)CN1c2ccccc2Sc2ccccc12,5.846366079999999
8878,GEBVEQ,C26 H24 N4 O3,CC(C)(C)C1=C(C=C2NC(=O)C(NC2=O)=Cc2cccc(c2)C(=O)c2ccccc2)N=CN1,5.66105655
8879,GEBVOA,C16 H13 F1 N4 O2 S1,NC1=C2C(=O)N(N=C(C(=O)NC3CC3)C2=CS1)c1ccc(F)cc1,6.0401111400000005
8880,GECGIG,C26 H32 O6,CCCOc1cc2C(=O)c3cc(OCCC)c(OCCC)cc3C(=O)c2cc1OCCC,5.5201015700000005
8881,GECGOM,C20 H20 O4,CCCOc1ccc2C(=O)c3cc(OCCC)ccc3C(=O)c2c1,6.002559430000001
8882,GECGUS,C20 H22 O2,CCCOc1ccc2cc3cc(OCCC)ccc3cc2c1,5.53724475
8883,GECMUY,C20 H15 N3 O1,COc1ccc(cc1)c1nc2ncccc2c(n1)c1ccccc1,5.73779265
8884,GECQOX,C28 H21 N3,c1ccc(cc1)N(c1ccccc1)c1ccc(cc1)C=Nc1cccc2ncccc12,5.50921702
8885,GECWET,C16 H18 N4 O1,CN(C)c1ccc(cc1)C(=O)N(C)N=Cc1ccccn1,5.98677683
8886,GECWUJ,C18 H14 O6,COc1ccc2C(=O)C3C(COc4cc5OCOc5cc34)Oc2c1,6.218073599999999
8887,GECXEU,C15 H15 N3 O2 S1,OCCCNC1=NC(=O)C(S1)=CC1=CNc2ccccc12,5.90487056
8888,GECXIW,C30 H20 O8,COc1cc2cc(O)ccc2c2c(O)cc3OC(=O)C4(CC(=O)c5c6ccc(O)cc6cc(OC)c45)c3c12,5.92391853
8889,GECXIX,C19 H13 N1 O3,O=C1C=CC(=O)C(=C1)N(c1ccccc1)C(=O)c1ccccc1,4.98294883
8890,GECXUI,C18 H11 N3 O1,[O-][N+]1=C2C=CC=CC2=C(C#N)N1c1cccc2ccccc12,5.4504404300000004
8891,GECXUJ,C26 H19 N1 O3,O=C1C=CC(=O)C(=C1)N(c1ccccc1)C(=O)C(c1ccccc1)c1ccccc1,5.337785289999999
8892,GECYEU,C20 H10 F5 N1 O3,Fc1c(F)c(F)c(CC(=O)N(c2ccccc2)C2=CC(=O)C=CC2=O)c(F)c1F,5.95820487
8893,GECZOF,C16 H10 N2 S3,S1C=CC=C1C1=CC=C(S1)c1ncncc1C1=CC=CS1,5.68908427
8894,GEDBAU,C12 H8 N2 S2,S1C=CC=C1C1=CC=C(S1)c1ccncn1,5.79412022