,ID,formula,smiles,HOMO_LUMO_gap
8415,FUGTEH,C25 H23 N3 O2,COc1ccc(CNC(c2ccccc2)=C2C(=NN(C2=O)c2ccccc2)C)cc1,6.1179357
8416,FUGVUY,C50 H32 N2 O2,O=C1c2ccccc2C(C2c3ccccc3C(=O)c3cc(nc(c4ccccc4)c23)c2ccccc2)c2c1cc(nc2c1ccccc1)c1ccccc1,5.7742559
8417,FUGWUA,C20 H19 Cl2 N3 O1 S1,COc1cc(Cl)nc(Sc2cccc(Cl)c2CNc2ccc(C)c(C)c2)n1,6.09317334
8418,FUGYAH01,C22 H20 N2 O2,COc1ccc(cc1)C=Cc1cnc(C=Cc2ccc(OC)cc2)cn1,5.20961967
8419,FUGYIP,C14 H12 N2 O4,COc1ccc(cc1)N=Nc1ccc(O)c(c1)C(O)=O,5.9405174700000005
8420,FUGYIQ,C26 H18 Cl2 N2 O2,Oc1ccc(Cl)cc1C(=NN=C(c1ccccc1)c1cc(Cl)ccc1O)c1ccccc1,5.93344251
8421,FUGZOX,C18 H18 N2 O3 S1,CCOC(=O)c1ccc(NC(=S)NC(=O)c2ccccc2C)cc1,6.23630522
8422,FUHBOA01,C15 H11 N1 S1,S1C=CC=C1C=Nc1cccc2ccccc12,5.78405201
8423,FUHCIV,C16 H22 O2 S8,CSC1=C(SC)SC(S1)=C1SC2=C(CSCCOCCOCCSC2)S1,6.096710819999999
8424,FUHCOA,C10 H2 Br6,Brc1cc2c(Br)c(Br)c(Br)c(Br)c2cc1Br,4.68988221
8425,FUHGOF,C11 H6 I2 S9,CSC1=C(SC)SC(S1)=C1SC(=S)C(S1)=C1SC(=C(I)S1)I,4.274636480000001
8426,FUHHOI,C26 H23 N3 O2,CCN(CC)c1ccc2C=C(C(=O)Oc2c1)C1=Nc2ccccc2N1c1ccccc1,5.74459549
8427,FUHHUO,C12 H12 F2 N4,CN1N=C(C)C(=C1C)N=Nc1c(F)cccc1F,6.24310807
8428,FUHJEX,C18 H16 N2 O1 S1,CN(c1ccccc1)C1=NC(=C(S1)C(C)=O)c1ccccc1,6.06024756
8429,FUHJIE,C10 H8 F2 N4,CN1C=C(C=N1)N=Nc1c(F)cccc1F,6.47304428
8430,FUHKUP,C17 H13 N1 O1 S2,Cc1ccccc1C=C1SC(=S)N(C1=O)c1ccccc1,5.63384517
8431,FUHLIE,C11 H7 I1 O1 S8,CSC1=C(SC)SC(S1)=C1SC(=O)C(S1)=C1SC=C(I)S1,4.8498851599999995
8432,FUHLOK,C14 H11 Cl1 O2,CC1=CC=C(O1)C=CC(=O)c1ccc(Cl)cc1,5.88799949
8433,FUHNOL,C27 H28 O4,COC1(OC(C)c2ccccc2)OC(=O)C2=C1C1=C(C)C=C(C)C=C(C)C1=C(C)C=C2,5.78622891
8434,FUHNUR,C20 H22 O4,COC1(OC)OC(=O)C2=CC=C(C)C3=C(C)C=C(C)C=C(C)C3=C12,5.58023873
8435,FUHRIK,C17 H13 N1,N#CC(=CC=Cc1ccccc1)c1ccccc1,5.50295839
8436,FUHROR,C20 H18 O2 S4,CSC(=S)C(C(C(=S)SC)C(=O)c1ccccc1)C(=O)c1ccccc1,6.381614020000001
8437,FUHRUW,C32 H32 N2 O3 S1,COc1ccc2NC3C(CN(C3Cc3ccccc3)S(=O)(=O)c3ccc(C)cc3)C(c3ccccc3)c2c1,6.1380721199999995
8438,FUHSAE,C12 H14 Cl1 N3 O2 S1,CCOC(=O)C(C)=NNC(=S)Nc1ccc(Cl)cc1,5.7426907
8439,FUHTEK,C46 H38 N4,CC1(C)c2ccccc2Nc2c1ccc1N(c3ccc(cc3)c3cc(nc(n3)c3ccccc3)c3ccccc3)c3ccccc3C(C)(C)c21,4.9315193200000005
8440,FUHTOU,C45 H37 N5,CC1(C)c2ccccc2Nc2c1ccc1N(c3ccc(cc3)c3nc(nc(n3)c3ccccc3)c3ccccc3)c3ccccc3C(C)(C)c21,4.883627269999998
8441,FUHTUX,C15 H14 O5,CC(C)=CCC12OC1C(=O)c1c(O)ccc(O)c1C2=O,6.23358409
8442,FUHWAH,C27 H41 P1,CC(C)(C)C1=CC(C=C1)=Pc1c(cc(cc1C(C)(C)C)C(C)(C)C)C(C)(C)C,5.48309409
8443,FUJBEU,C30 H26 N6 O2,COc1ccc2c(ccc(OC)c2C2=C(N=NN2C)c2ccccc2)c1C1=C(N=NN1C)c1ccccc1,5.8888158399999995
8444,FUJGUN,C30 H27 F3 N2 O4,COc1ccc2NC3(OC4=C(C(c2c1)C3(C)C)C(=O)Oc1cc(ccc41)N(C)C)c1ccc(cc1)C(F)(F)F,5.86024389
8445,FUJWIR,C20 H22 Cl1 N3,CC(C)CN(CC(C)C)C1=C(Cl)C(=C(C#N)C#N)c2ccccc12,4.7902922199999995
8447,FUJZOB,C30 H41 N1 O3,CNC(=O)C1(C)CCC2(C)CCC3(C)C4=CC=C5C(=C(O)C(=O)C=C5C4(C)CCC3(C)C2C1)C,5.110026
8448,FULCEU,C16 H14 O3 S1,CSc1ccccc1C(O)=CC(=O)c1ccccc1O,6.018069920000001
8451,FULHPF,C22 H16,C1=CC(C=C1)=CC=C1c2ccccc2C=Cc2ccccc12,5.44527027
8452,FULHUP,C19 H16 N6 O1,CCN1c2ccccc2C2=NN3C(=NN=C3c3ccc(OC)cc3)N=C12,4.99002379
8453,FULLUU,C22 H12 S2,S1c2ccc3ccccc3c2C2=C1c1c(S2)ccc2ccccc12,5.6999688200000005
8454,FULMAD,C41 H31 N1 O4,COC(=O)C1(Cc2c(C1)c1c(NC(=C1c1ccccc1)c1ccccc1)c(c1ccccc1)c2C#Cc1ccccc1)C(=O)OC,5.77452802
8455,FULNUY,C26 H18 N4 O4,CCN1C(=O)C(=C2c3ccccc3C(=O)N=C12)C1=C2c3ccccc3C(=O)N=C2N(CC)C1=O,5.20771487
8456,FULPAG,C28 H22 N4 O4,CCN1C(=O)C(=C2c3cc(C)ccc3C(=O)N=C12)C1=C2c3cc(C)ccc3C(=O)N=C2N(CC)C1=O,5.1693468199999995
8457,FULRAG,C31 H26 N2 O4,COc1ccc(cc1)C1C(=NOC21N(Cc1ccccc1C2=O)c1ccccc1)c1ccc(OC)cc1,6.27168003
8458,FULREM,C25 H18 N2 O3,Cc1ccc(cc1)C1=C2N(C(=O)N(Cc3ccccc3)C1=O)c1ccccc1C2=O,5.41778676
8459,FULVIT,C31 H23 N5,NC(C#N)=C(N=Cc1ccc(C=Cc2ccc(cc2)N(c2ccccc2)c2ccccc2)cc1)C#N,4.38756373
8460,FULVUF,C19 H12 B1 F2 N3,F[B-]1(F)N2C=Cc3cccc(C4=[NH+]c5cccc6cccc(N14)c56)c23,5.78269144
8461,FULXAL,C20 H18 B1 N1 O2,C[N+]1=Cc2ccccc2O[B-](O1)(c1ccccc1)c1ccccc1,5.82759023
8462,FUMBIA,C16 H13 Br1 O2,Brc1cc2CCC3=CC(=O)C(=CC3=O)CCc1cc2,5.751942570000001
8463,FUMBOG,C16 H13 Br1 O3,OC1=C2CCc3ccc(CCC(=CC2=O)C1=O)c(Br)c3,5.64282492
8465,FUMFEZ,C25 H21 F2 N3 O4,COC(=O)c1cccc(c1)C1=NN2C(=C1)N=CC=C2c1ccc(OC(F)F)c(OCC2CC2)c1,6.00419211
8466,FUMGOK,C12 H9 Cl1 N2,C[n+]1ccc2c(c1)[N-]c1ccc(Cl)cc21,5.13914218
8467,FUMKEE,C29 H20 O4,COc1ccc(cc1)C#Cc1cc2C(=O)c3ccccc3Oc2c(c1)c1ccc(OC)cc1,5.83330462
8468,FUMLAD,C32 H42 N4,CC(C)c1cccc(C(C)C)c1N=C(C)c1cnc(cn1)C(C)=Nc1c(cccc1C(C)C)C(C)C,5.814800870000001
8469,FUMLEH,C32 H42 N4,CC(C)c1cccc(C(C)C)c1N=C(C)c1cncc(n1)C(C)=Nc1c(cccc1C(C)C)C(C)C,6.21317555
8470,FUMLUW,C11 H13 N3 O2,CC(=NO)C(C)=NN=Cc1ccccc1O,6.34433443
8471,FUMMIL,C46 H30 O4,COc1ccc2c3ccc(OC)cc3c3c(c4cccc5c4c3c3cccc4c3c5c3c5cc(OC)ccc5c5ccc(OC)cc5c43)c2c1,3.92088847
8473,FUMROU01,C44 H40 N4 O8,O=C1N2CCCCCCCCN3C(=O)c4ccc5C(=O)N(CCCCCCCCN6C(=O)c7ccc1c1c(ccc(C6=O)c71)C2=O)C(=O)c1ccc(C3=O)c4c51,5.3998272499999995
8474,FUMSAK,C33 H41 N3,CC(C)c1cccc(C(C)C)c1N1[N-][N+](=C(c2ccccc2)C1=C)c1c(cccc1C(C)C)C(C)C,4.77178848
8475,FUMSEM,C31 H40 N2,CC(C)c1cccc(C(C)C)c1NC=C1C=CC=C1C=Nc1c(cccc1C(C)C)C(C)C,5.58214353
8476,FUMTAI,C7 H12 N2 O5,[NH3+]C(CC(=O)[O-])C(=O)NC(C)C(O)=O,6.33344987
8477,FUMTUC,C19 H20 O7,COc1ccc(cc1OC)C=C(Oc1c(OC)cccc1OC)C(O)=O,6.02215163
8478,FUMVIV,C18 H12 N2 S8,C1CSC2=C(S1)SC(S2)=C1SC(=C(Sc2ccncc2)S1)Sc1ccncc1,5.35901017
8479,FUMWEQ,C30 H28 Br1 N2 P1,Cc1cc(C)c(N2P(Br)N(c3c(C)cc(C)cc3C)C3=C2c2cccc4cccc3c24)c(C)c1,4.983493060000001
8480,FUMWUH,C25 H12 F6 N2 O6,FC1(F)C(=C(Oc2ccc(cc2)N2C(=O)C=CC2=O)C(F)(F)C1(F)F)Oc1ccc(cc1)N1C(=O)C=CC1=O,5.68473045
8481,FUMZOC,C12 H8 Br2 O4,COc1cccc2C=C(C(=O)Oc12)C(=O)C(Br)Br,6.04147171
8483,FUNCUO,C30 H29 N3 O8 S2,CCOC(=O)C1=C(N2c3ccccc3C(=C2N1NS(=O)(=O)c1ccc(C)cc1)S(=O)(=O)c1ccc(C)cc1)C(=O)OCC,5.62976346
8484,FUNCUP,C33 H41 N3,CC(C)c1cccc(C(C)C)c1N1[N-][N+](=C(c2ccccc2)C1=C)c1c(cccc1C(C)C)C(C)C,4.824306450000001
8487,FUNDEY,C16 H4 S6,S1C=C2SC3=CSC4=C3C2=C1C1=C2C(=CS1)SC1=CSC4=C21,4.6112413100000005
8489,FUNJEF,C20 H20 N2 O4 S1,CCc1ccc(cc1)S(=O)(=O)NN=CC=CC=Cc1ccc2OCOc2c1,5.4898969399999995
8490,FUNPIQ,C32 H20,c1ccc(cc1)C#CC(=C=C=C(C#Cc1ccccc1)c1ccccc1)c1ccccc1,4.035448410000001
8491,FUNQUA,C42 H42 N4 O2,CCN(CC)c1ccc(C=Nc2ccc3ccccc3c2c2c(ccc3ccccc23)N=Cc2ccc(cc2O)N(CC)CC)c(O)c1,5.553299460000002
8492,FUNTUD,C10 H12 O3,CC(C)C1=C(O)C(=O)C(=CC1=O)C,6.348144019999999
8493,FUNVAL,C10 H12 O3,CC(C)C1=CC(=O)C(=C(O)C1=O)C,6.2692309999999996
8495,FUNXER,C6 H7 N5 O1,CN1C(=NC2=NNC(=O)N=C12)C,6.23739368
8496,FUNXIY,C49 H32 N2,c1ccc(cc1)c1nc2N3C(=C(c4ccccc4)c4ccccc4C3=C(c3ccccc3)c3cccc(c1c1ccccc1)c23)c1ccccc1,5.013425590000001
8497,FUNYIY,C39 H31 N9 O3 S2,CN1c2cccc(n2)N(C)c2cccc(n2)N(c2cccc(n2)N(C)c2cccc1n2)c1cc(OC(=O)C2=CC=CS2)ccc1NC(=O)C1=CC=CS1,5.80690957
8498,FUPBAW,C50 H34 N2,Cc1ccc2C(=C3N(c4nc(c5ccccc5)c(c5ccccc5)c1c24)C(=C(c1ccccc1)c1ccccc31)c1ccccc1)c1ccccc1,5.08716844
8499,FUPGII,C38 H32,CC(C)(C)c1ccc2c(c1)c1c3ccccc3c3c4ccc(cc4c4c5ccccc5c2c1c34)C(C)(C)C,3.77748447
8500,FUPGOO,C30 H18,c1ccc(cc1)c1c2ccccc2c2c3ccccc3c3c4ccccc4cc1c23,4.129327679999999
8501,FUPHAB,C38 H34,CCCCC12c3ccccc3c3c4ccccc4c4c5ccccc5C(CCCC)(c5ccccc15)c4c23,5.54649662
8502,FUPHEF,C34 H26,CCCCC12c3ccccc3C3c4ccccc4c4c5ccccc5c(c5ccccc15)c2c34,5.54948987
8503,FUPHIJ,C36 H20,c1ccc2c(c1)c1c3ccccc3C34c5ccccc5C5(c6ccccc6c2c5c13)c1ccccc41,5.66160077
8504,FUPJOP,C15 H9 N1 S8,C1CSC2=C(S1)SC(S2)=C1SC2=C(S1)SC(=CS2)c1ccccn1,5.006622739999999
8505,FUPKOT,C22 H24 N2 O7 S1,CCOc1cc(ccc1OC)C(CS(C)(=O)=O)N1C(=O)c2cccc(NC(C)=O)c2C1=O,5.88337357
8506,FUPMIM,C18 H18 S14,CSC1=C(SC)SC(S1)=C1SC(=C(S1)C1=C(SC)SC(S1)=C1SC(=C(SC)S1)SC)SC,5.4460866
8507,FUPNUA,C24 H22 N2 O1 S2,COc1ccc(cc1)[N+]1=C(SC(=C1[S-])c1ccccc1)N(C)Cc1ccccc1,5.03982063
8509,FUPPOV,C16 H17 N3 O2,COCC1=CC=CC(N1)=C(C#N)c1cccc(COC)n1,5.20717064
8510,FUPQAK,C19 H15 N1 O2,CN1C(=O)C2=CC3=CC4=CC=CC=C(C4)C=C(C3)C=C2C1=O,5.23710316
8511,FUQHAA,C22 H14 S2,S=C1SCc2ccc3ccccc3c2c2c1ccc1ccccc21,5.95711642
8512,FUQHIL,C21 H24 N4 O1,CC(C)N(N=NC1=C(NC(=O)c2ccccc12)c1ccccc1)C(C)C,5.99820561
8513,FUQHOO,C21 H35 N3,CC1=CC(=CC2(C)N(C(N=C12)=NC(C)(C)C)C(C)(C)C)C(C)(C)C,5.9862326
8514,FUQJAC,C22 H22 O5,COc1cc(ccc1O)C=C1CCCC(=Cc2ccc(O)c(OC)c2)C1=O,5.677927599999999
8515,FUQKOR,C10 H15 N5 O4,CC(C)C(NC1=NC(=C(N=O)C(=O)N1C)N)C(O)=O,6.33943637
8516,FUQLAE,C9 H13 N5 O5,CC(O)C(NC1=NC(=C(N=O)C(=O)N1C)N)C(O)=O,6.24555709
8517,FUQPUF,C21 H20 Cl1 N1 O1 S1,Clc1ccccc1C=C(C(=O)c1ccccc1)C(=S)N1CCCCC1,5.74595607
8518,FUQQEO,C41 H36 N4,CCCCCCN1c2ccccc2c2cc(C=Cc3ccc(cc3)c3cc(nc(c3)c3ccccn3)c3ccccn3)ccc12,5.51792466
8519,FUQTAP,C26 H33 Br2 N3,CCC1=C(CC)C(=CC2=C(CC)C(=C(N2)C=C2N=C(Br)C(=C2CC)CC)CC)N=C1Br,4.235724189999999
8520,FUQTOD,C28 H39 Br1 N4,CCN(CC)C1=NC(=CC2=C(CC)C(=C(N2)C=C2N=C(Br)C(=C2CC)C)CC)C(=C1C)CC,4.036808970000001
8521,FUQWOG,C19 H14 N4 O2,Oc1ccccc1C=NC1=CC=C(Nc2ccccc2)C2=NON=C12,4.91791362
8522,FUQWUM,C15 H13 N3 O1,CN1N=C(c2cccc3ccccc23)C(=C1C)N=O,5.83956323
8523,FUQXAT,C16 H15 N3 O1,CCN1N=C(c2cccc3ccccc23)C(=C1C)N=O,5.4090791199999995
8524,FUQXEX,C17 H17 N3 O1,CCCN1N=C(c2cccc3ccccc23)C(=C1C)N=O,5.2553348
8525,FUQXUL,C20 H12 N10,c1cnc(cn1)c1nc(c2cnccn2)c(nc1c1cnccn1)c1cnccn1,5.613708730000001
8526,FUQZAU,C13 H11 N1 O4,CC1=CC(=C(C(=O)O1)C(=O)C=CC1=CC=CN1)O,5.227579179999999
8527,FUQZEY,C17 H17 N1 O4,CN(C)c1ccc(C=CC(O)=C2C(=O)OC(=CC2=O)C)cc1,4.83546312
8528,FURBOM,C34 H41 N7 S2,S=C(NN=Cc1ccc(cc1)N(c1ccccc1)c1ccc(cc1)C=NNC(=S)NC1CCCCC1)NC1CCCCC1,5.38023506
8529,FURFIK,C17 H17 N3 S1,CCNC(=S)NN=Cc1ccc2c(Cc3ccccc23)c1,5.62649809
8530,FURGOR,C23 H23 N7 O3,CCN(CC)c1ccc2C=C(C=NNC(=O)CC3=NN=C(N3)c3cccnc3)C(=O)Oc2c1,5.249076179999999
8531,FURLUC,C22 H20 N2 O4,COC(=O)c1cccc(Nc2ccc(Nc3cccc(c3)C(=O)OC)cc2)c1,6.02296797
8532,FURMEN,C34 H28 N2 O4,COC(=O)c1ccccc1N(c1ccccc1)c1ccc(cc1)N(c1ccccc1)c1ccccc1C(=O)OC,5.66595459
8533,FURMIR,C34 H28 N2 O4,COC(=O)c1cccc(c1)N(c1ccccc1)c1ccc(cc1)N(c1ccccc1)c1cccc(c1)C(=O)OC,5.59248386
8534,FURMUB,C25 H23 B1 N2,CN1C=C[N+](=C1C#C[B-](c1ccccc1)(c1ccccc1)c1ccccc1)C,5.61153183
8535,FURQOA,C28 H19 Br1 N2 O4 S2,BrC12c3ccccc3C(c3ccccc13)C13SC4=C(SC21C(=O)N(CC=C)C3=O)C(=O)N(CC=C)C4=O,5.59847036
8536,FURTAQ,C16 H11 F4 N1 O1,Nc1ccccc1C=CC(=O)c1ccc(F)c(c1)C(F)(F)F,5.455338469999999
8537,FURTRP,C10 H9 Br1 O2,BrCC1CC2=C(O1)C(=O)C=CC=C2,5.97289902
8538,FUSJEK,C20 H17 N1 O3,Cc1cccc(OCC=C)c1N1C(=O)C=C(C1=O)c1ccccc1,5.86976787
8539,FUSKOW,C19 H17 Cl1 N2 O1,Clc1ccc2CC3(C=CC4=C(C=CN4)C3=O)C3CCCN3c2c1,5.98977008
8540,FUSLOV,C18 H22 O2 S2,CC(C)(C)c1ccc2ccc(c3c2c1S(=O)S3=O)C(C)(C)C,6.11330977
8542,FUSQAN,C22 H19 N1 O5,CC(=O)CC1N2CCc3cc4OCOc4cc3C2=Cc2ccc3OCOc3c12,5.57615703
8543,FUTCEF,C17 H12 N2 O1,O=C1C(C#N)C2Cc3ccccc3N2c2ccccc12,6.01507666
8544,FUTCIJ,C32 H22 N2 O2,OC1=C(C(=O)c2ccccc2)C(=C(C#N)C2Cc3ccccc3N2c2ccccc12)c1ccccc1,5.268396259999999
8545,FUTCOP,C33 H24 N2 O2,CC1C2N(c3ccccc13)c1ccccc1C(=C(C(=O)c1ccccc1)C(=C2C#N)c1ccccc1)O,5.157373799999999
8546,FUTHUA,C28 H30 O4,CC(C)(C)OC(=O)CCCC#CC#CC#CC#CC#CC#CCCCC(=O)OC(C)(C)C,5.8001067299999995
8547,FUTJAG,C23 H16 N2 S2,C1c2cc(ccc2c2ccc(cc12)N=CC1=CC=CS1)N=CC1=CC=CS1,5.51193816
8548,FUTJAI,C28 H36 O6 P2,CCOP(=O)(CCCCC#CC#CC#CC#CC#CC#CCCCCP(=O)(OCC)OCC)OCC,5.584592560000001
8549,FUTJEM,C12 H11 Br1 N4 O1 S1,CSc1nc(cc(n1)c1ccc(Br)cc1)C(=O)NN,6.26487718
8550,FUTLAJ,C55 H36 N2,c1ccc(cc1)N1C(=Nc2c3cccc4ccc5cccc(c12)c5c34)c1ccc(cc1)c1ccc(cc1)C(c1ccccc1)=C(c1ccccc1)c1ccccc1,5.486359449999999
8551,FUTLOX,C24 H38 B2 P2,Cc1cc(C)c(c(C)c1)[B-]1=[B-](c2c(C)cc(C)cc2C)[P+](C)(C)CC[P+]1(C)C,5.87793128
8552,FUTLUE,C27 H19 N1 O3,CC(C)Oc1ccc2c(OC(=O)c3c2cc2ccccc2c3c2ccc(cc2)C#N)c1,5.79439233
8553,FUTRET,C20 H18 O2 S1,Cc1ccc(cc1)C1=C2OCCOC2=C(S1)c1ccc(C)cc1,5.8599717700000005
8554,FUVBUV,C44 H34 N4 O4,COc1ccc(cc1)N(c1ccc(OC)cc1)c1ccc2c(c1)c1cc(ccc1C2=C(C#N)C#N)N(c1ccc(OC)cc1)c1ccc(OC)cc1,4.319263149999999
8555,FUVFIO,C28 H20 N1 O2 P1,O1c2ccccc2OP21=C(C=C(C=C2c1ccccc1)c1ccccc1)c1ccccn1,5.64690663
8556,FUVRAR,C22 H24 Cl1 N1 O4,COC(=O)c1ccc2N=C3C(=C(C(=O)C(=C3C(C)(C)C)Cl)C(C)(C)C)Oc2c1,5.173972750000001
8557,FUVSEU,C13 H12 O6,COC1=C(OC)C(=O)c2c(O)c(C)cc(O)c2C1=O,5.9486808799999995
8558,FUVSIY,C18 H16 O9,COC1=C(OC(C)=O)C(=O)c2c(OC(C)=O)cc(C)c(OC(C)=O)c2C1=O,6.286102059999999
8559,FUVSOH,C11 H9 Br1 N2 O3,CCOC(=O)C1=CN=C2C=CC(=CN2C1=O)Br,6.002287320000001
8560,FUVSUK,C30 H28 N2 O2,COc1c2ccccc2c(OC)c2C3CC(C4C5CC(C6C7CCC(C56)C7=C(C#N)C#N)C34)c12,5.718472569999999
8561,FUVYEC,C25 H19 N2 O2 P1,O(c1ccccc1)P1(=Nc2ccccc2C=C1c1ccccn1)Oc1ccccc1,5.8112634
8562,FUWCAC,C22 H24 Br1 N3 O3,CC(C)NC1CCN2C(=O)N(CC(=O)c3ccc(Br)cc3)c3cccc(C1O)c23,6.00909017
8563,FUWCIK,C11 H14 N4 S1,CC(=NNC(=S)NCC=C)c1ccccn1,6.02215162
8564,FUWFAG,C25 H17 N1 O1,O=C(c1ccccc1)c1ccc(cc1)N1c2ccccc2c2ccccc12,5.8792918599999995
8565,FUWFEK,C25 H15 Br2 N1 O1,Brc1ccc2N(c3ccc(cc3)C(=O)c3ccccc3)c3ccc(Br)cc3c2c1,5.78650103
8566,FUWLEO,C12 H16 O4,COC(=O)C(C)=CC=CC=C(C)C(=O)OC,5.79412022
8567,FUWREX,C17 H16 O6,CCOc1cccc2c1OC(=O)C(=C2C=CC(=O)OC)C(C)=O,6.04881878
8568,FUWROG,C27 H21 N1 O1,O=C(C=Cc1ccc(cc1)N(c1ccccc1)c1ccccc1)c1ccccc1,5.35057464
8569,FUWSIA,C22 H25 N3 O3,CCCCCCN1C(=O)C(=NNC(=O)c2ccccc2)c2ccc(OC)cc12,5.8017394
8570,FUWTAT,C14 H13 N1 O3 S2,COc1ccccc1CNC(=S)C1=C(O)C(=S)C=CO1,5.19628608
8571,FUWTEX,C19 H17 N1 O4 S1,COc1cc(cc(OC)c1OC)C(=O)C1=CSC(=N1)c1ccccc1,6.26569352
8572,FUWVEB,C26 H17 N1 O1,Cc1ccc(cc1)C1=C2N(C(=O)c3ccccc13)c1cccc3cccc2c13,5.14376811
8573,FUWVIF,C32 H26 N2 O1,COc1ccc(cc1)C1=CC(NC(=C1C#N)c1ccc(C)cc1)(c1ccccc1)c1ccccc1,6.01616512
8574,FUXDAE,C20 H18 Cl2,Clc1cccc2c1cc1c(Cl)cccc1c2C1CCCCC1,5.367717820000001
8575,FUXDEI,C18 H16 Cl2,CC(C)(C)c1c2cccc(Cl)c2cc2c(Cl)cccc12,5.2082591
8576,FUXDOS,C18 H16 Cl2,CCCCc1c2cccc(Cl)c2cc2c(Cl)cccc12,5.34676505
8579,FUXGOX,C22 H20 N2 O3,CC(C)(C)NC(=O)CN1C(=O)c2ccccc2C2=C1c1ccccc1C2=O,5.33533627
8580,FUXKOB,C37 H24 O2,O=C1Oc2ccccc2C23C1c1ccccc1C2=C(c1ccccc1)C(=C3c1ccccc1)c1ccccc1,5.79194331
8581,FUXKUH,C38 H26 O2,Cc1ccc2OC(=O)C3c4ccccc4C4=C(c5ccccc5)C(=C(c5ccccc5)C34c2c1)c1ccccc1,5.8330325
8585,FUXTUP,C25 H17 F1 N2 O2,Fc1ccc(cc1)C1=C(Cc2ccccc2)c2ccccc2N2N1C(=O)C=CC2=O,5.53860531
8586,FUXVIE,C28 H42,CC(C)(C)C(=CC=CC#CC#CC=CC=C(C(C)(C)C)C(C)(C)C)C(C)(C)C,5.26676358
8587,FUXVOK,C32 H46,CC(C)(C)C(=CC=CC=CC#CC#CC=CC=CC=C(C(C)(C)C)C(C)(C)C)C(C)(C)C,4.84988516
8588,FUXVUQ,C28 H38,CC(C)(C)C(=CC#CC#CC#CC#CC=C(C(C)(C)C)C(C)(C)C)C(C)(C)C,5.46268555
8589,FUXWAX,C28 H44 S1,CC(C)(C)C(=CC=CC1=CC=C(S1)C=CC=C(C(C)(C)C)C(C)(C)C)C(C)(C)C,5.06784835
8590,FUXWEB,C32 H48 S1,CC(C)(C)C(=CC=CC=CC1=CC=C(S1)C=CC=CC=C(C(C)(C)C)C(C)(C)C)C(C)(C)C,4.63491522
8591,FUYBIN,C18 H14 O4 S1,COC(=O)C1=CC2=C(SC=C2)C2=CC=CC=CC2=C1C(=O)OC,5.29560765
8592,FUYBOT,C21 H20 O4 S1,COC(=O)C1=CC2=C(SC=C2)C2=CC=CC(=CC2=C1C(=O)OC)C(C)C,5.5105775900000005
8593,FUYBUZ,C18 H14 O4 S1,COC(=O)C1=CC2=C(C=CS2)C2=CC=CC=CC2=C1C(=O)OC,5.72255428
8594,FUYGIP,C38 H29 N3,Cc1cccc(C)c1N1C(=C(N=C2N=C(c3ccccc3)C(=C12)c1ccccc1)c1ccccc1)c1ccccc1,5.34567659
8595,FUYHEM,C42 H50 N2,Cc1c(C)c(C)c2C3N(C(c2c1C)c1c2ccccc2c2C4N(C(c5c(C)c(C)c(C)c(C)c45)c2c31)C(C)(C)C)C(C)(C)C,5.84037958
8596,FUYHOZ,C19 H16 Br1 N3 O1,Brc1ccc(cc1)C(=O)NN=C1CCCC2=C1Nc1ccccc21,5.97480381
8597,FUYLIV,C33 H30 N2 O4,COc1ccc(NC=C(CC(=CNc2ccc(OC)cc2)C(=O)c2ccccc2)C(=O)c2ccccc2)cc1,5.98514414
8598,FUYMUI,C14 H13 I1 O4,COc1ccc(COC2C3OC3C(=O)C=C2I)cc1,6.3339941
8599,FUYWIH,C17 H17 N1 O3,COC(=O)C1=C2C=Cc3c(OC)cccc3N2C(C1)C=C,5.41642619
8600,FUYXEF,C14 H15 N1 O1 S2,CSC(=S)C1=C(CCC1)NC(=O)c1ccccc1,5.811807620000001
8601,FUYXIJ,C16 H20 N2 O1 S2,CSC(=S)C1=C(CCC1)NCCNC(=O)c1ccccc1,5.991946980000001
8602,FUYYEG,C13 H15 N1 O2 S2,COc1cc2CC[N+](=C(C(=S)[S-])c2cc1OC)C,4.923083780000001
8603,FUYZUW,C34 H18,c1ccc2c(c1)cc1c3ccccc3c3c4c5ccccc5cc5c6ccccc6c(c2c13)c45,4.89532817
8606,FUZBOT,C50 H34 O4,COc1cc(OC)cc(c1)c1c2ccccc2c2c3c4ccccc4c4c(c5cc(OC)cc(OC)c5)c5ccccc5c(c5c6ccccc6c1c25)c34,4.90648484
8607,FUZMET,C18 H16 O2,CC(=O)c1ccc(C=Cc2ccc(cc2)C(C)=O)cc1,5.76092233
8608,FUZPIA,C25 H20 O9,COC(=O)C1=C(OC)OC2=C1C(=O)OC(=C2C(=O)c1ccc(OC)cc1)c1ccc(OC)cc1,5.761466560000001
8609,FUZPIC,C27 H18 N4 S2,S1C=CC=C1c1nc2cc(cnc2nc1C1=CC=CS1)N(c1ccccc1)c1ccccc1,5.13342779
8610,FUZPUM,C17 H11 N1 O2,COC1=Cc2ccnc3c4ccccc4cc(C1=O)c23,5.456971149999999
8611,FUZQEZ,C36 H39 N5 O2,CCN(CC)c1ccc2c(Oc3cc(ccc3C32N(CCN=Cc2ccncc2)C(=O)c2ccccc32)N(CC)CC)c1,5.95521162
8612,FUZQOI,C19 H21 N3 O3 S2,CCN(CC)S(=O)(=O)c1ccc(cc1)C1=C(OC)N=C(S1)c1ccccn1,5.53316304
8613,FUZQUO,C20 H22 N4 O5 S2,CCN(CC)S(=O)(=O)c1ccc(cc1)C1=C(OCC(=O)OC)N=C(S1)c1cnccn1,5.45343368
8614,FUZQUP,C25 H19 N1 O2,COc1ccc(cc1)C1=C2N(Cc3ccccc13)C(=O)C=C2c1ccccc1,5.38948692
8615,FXBPOL,C26 H30 Cl1 F1 N2 O2,Fc1ccc(cc1)C(=O)CCCN1CCC(CC1)(C(=O)N1CCCC1)c1cccc(Cl)c1,6.55114095
8616,GABBIV,C15 H11 Cl1 O5,COc1c2C(=O)OC(C)Cc2cc2C(=O)C(=CC(=O)c12)Cl,6.040927480000001
8617,GABBOC,C20 H13 N1 O1,C1Oc2ccc3ccccc3c2c2nc3ccccc3cc12,5.81806624
8618,GABFOG,C18 H21 Cl1 N2 O1 S1,CNc1ccc(Cl)cc1C(=NS(=O)C(C)(C)C)c1ccccc1,5.74541184
8619,GABFUM,C22 H23 Cl1 N2 O1 S1,CNc1ccc(Cl)cc1C(=NS(=O)C(C)(C)C)c1ccc2ccccc2c1,5.84418917
8620,GABGAS,C17 H19 N1 O2,CCCCNC=C1C=CC=C(C1=O)c1ccccc1O,5.26948471
8621,GABGAT,C22 H23 Cl1 N2 O1 S1,CNc1ccc(Cl)cc1C(=NS(=O)C(C)(C)C)c1cccc2ccccc12,5.7805145300000005
8622,GABGEX,C17 H19 Cl1 N2 O1 S1,CC(C)(C)S(=O)N=C(c1ccccc1)c1cc(Cl)ccc1N,5.91221763
8623,GABGIB,C18 H21 N1 O2 S1,COc1ccccc1C(=NS(=O)C(C)(C)C)c1ccccc1,6.39032167
8624,GABGOF,C24 H16 Cl4 N2 O4,CC(C)(C)C1=CC2(ON=C(O2)c2c(Cl)cccc2Cl)C(=O)C2=C1ON=C2c1c(Cl)cccc1Cl,6.492092250000001
8625,GABGUN,C19 H24 N2 O1 S1,CN(C)c1ccccc1C(=NS(=O)C(C)(C)C)c1ccccc1,6.1304529400000005
8626,GABHIC,C22 H25 Cl1 N2 O1 S1,CNc1ccc(Cl)cc1C(NS(=O)C(C)(C)C)c1cccc2ccccc12,5.93561942
8627,GABJUP,C29 H25 N1 O3,COc1ccc(C=CC(=O)N2CC(=Cc3ccccc3)C(=O)C(C2)=Cc2ccccc2)cc1,5.79929038
8628,GABKAW,C30 H27 N1 O4,COc1ccc(C=CC(=O)N2CC(=Cc3ccccc3)C(=O)C(C2)=Cc2ccccc2)cc1OC,5.36771781
8629,GABKEA,C28 H21 Cl2 N1 O2,Clc1ccc(C=CC(=O)N2CC(=Cc3ccccc3)C(=O)C(C2)=Cc2ccccc2)cc1Cl,6.153854719999998
8630,GABLON,C30 H18 O2,O=C1c2ccccc2C(=O)c2c(c3ccccc3)c3ccccc3c(c3ccccc3)c12,5.787317379999999
8631,GABMAA,C30 H18,c1ccc2C3c4ccccc4c4c5ccccc5c5c6ccccc6C(c2c1)c5c34,5.71357452
8632,GABOBU10,C4 H9 N1 O3,[NH3+]CC(O)CC(=O)[O-],4.8624024
8633,GABZIU,C36 H32 O9,CCOC(=O)C1C2CC(C1C(=O)OCC)C1C2C2(C(=O)OC)C(=O)C1(C(=O)OC)c1c3cccc4ccc5cccc(c5c34)c21,5.62105581
8634,GACCAO,C33 H16 O1 S8,O=C1C(=C2Sc3ccccc3S2)C(=C2Sc3ccccc3S2)C(=C2Sc3ccccc3S2)C1=C1Sc2ccccc2S1,4.92362801
8635,GACCIY,C24 H19 P1 S2,C1CSC2=C(P(c3ccccc3)C(=C2S1)c1ccccc1)c1ccccc1,5.56989841
8636,GACCUK,C24 H19 O5 P1 S2,O=P1(c2ccccc2)C(=C2C(=C1c1ccccc1)S(=O)(=O)CCS2(=O)=O)c1ccccc1,5.97208268
8637,GACHEA,C23 H15 N1 O1 S1,Oc1cccc2ccc(C=CC3=CC=C(S3)C#Cc3ccccc3)nc12,5.29533553
8638,GACKAZ,C28 H18 N2,c1ccc2c(c1)cccc2c1nc2ccccc2c(n1)c1cccc2ccccc12,5.7859568
8639,GACNAA,C13 H12 N4 S1,NC(=S)NN=C(c1ccccc1)c1ccccn1,5.38785424
8640,GACPEI,C25 H28 O5,CC(C)=CCc1c(C)cc(O)c2C(=O)c3c(O)cc(O)c(CC=C(C)C)c3C(O)c12,6.54787558
8641,GACPIM,C30 H36 O4,CC(C)=CCc1c(C)cc2cc3c(c(O)c2c1O)C(=O)C=C(O)C3(CC=C(C)C)CC=C(C)C,6.03221984
8642,GACVOY,C14 H13 N1 O2 S2,COc1cccc(c1)C=C1SC(=S)N(CC=C)C1=O,5.5903069499999996
8643,GADBOF,C12 H16 N2 O2 S1,CN(CCO)C(=S)NC(=O)c1ccc(C)cc1,6.16011335
8644,GADDIY,C24 H28 N2 O6,CC(C)(C)OC(=O)C(NC(CO)c1ccccc1)C(O)CN1C(=O)c2ccccc2C1=O,6.53372567
8645,GADGAW,C16 H16 Br1 N1 O1,CC(Nc1ccc(Br)cc1)C(=O)c1ccc(C)cc1,6.08174456
8646,GADGEA,C17 H16 N2 S1,Cc1ccc(cc1)C1=C(C)N(C(=S)N1)c1ccccc1,5.96391926
8647,GADGUO,C26 H27 N9 O1,Cc1ccc(cc1)C(N1N=C(C)N(Cc2ccccn2)C1=N)N1N=C(C)N(Cc2ccccn2)C1=O,6.11657513
8648,GADJEC,C19 H20 O1 S1,CCSC(CC(=O)C=Cc1ccccc1)c1ccccc1,6.187596839999999
8649,GADJOM,C19 H20 O1 S1,CCSCC(C(=O)C=Cc1ccccc1)c1ccccc1,6.15820855
8650,GADNAC,C15 H12 N4 O2 S1,COC(=O)c1ccccc1N=NNC1=Nc2ccccc2S1,5.67901606
8651,GADPAD,C7 H17 N1 O7 P2,OC(CC[NH+]1CCCC1)(P(O)(O)=O)P(O)(=O)[O-],6.65508844
8652,GADPAE,C7 H9 N3 S2,CNC(=S)NN=CC1=CC=CS1,5.7489493199999995
8653,GADPIL,C17 H18 Cl1 N3 O4,OCC(CO)(CO)NC=C1C=C(C=CC1=O)N=Nc1cccc(Cl)c1,5.23329357
8654,GADPOR,C14 H17 N5 O4,COc1ccc(CNC2=NC(=C(N=O)C(=O)N2C)N)cc1OC,6.30868751
8655,GADSUC,C15 H15 N1 O1,CC(Nc1ccccc1)C(=O)c1ccccc1,5.8782034
8656,GADTAJ,C18 H19 N1 O3,COC(=O)c1ccc(NC(C)C(=O)c2ccc(C)cc2)cc1,6.03466887