,ID,formula,smiles,HOMO_LUMO_gap
2356,BOTMEF,C33 H24 Cl1 N1 O2,CN1c2ccccc2C2=C1C1(C(CC2c2ccccc2)c2ccccc2Cl)C(=O)c2ccccc2C1=O,5.15274788
2357,BOTMIJ,C33 H24 Cl1 N1 O2,CN1c2ccccc2C2=C1C1(C(CC2c2ccccc2)c2ccc(Cl)cc2)C(=O)c2ccccc2C1=O,5.12036633
2358,BOTPEI,C23 H15 Cl1 N2 S1,Clc1ccc(cc1)C1=NC(=C2C=Cc3ccccc3N12)Sc1ccccc1,5.831127700000001
2359,BOTRAG,C19 H13 N3 O1,CC1=CC2=C(C#N)c3nc(ccc3N2C=C1)c1ccccc1O,5.58867426
2360,BOTREK,C20 H14 F1 N3,CCC1=CC2=C(C#N)c3ncc(cc3N2C=C1)c1ccc(F)cc1,5.4014599400000005
2361,BOTRUY,C9 H4 O1 S8,O=C1SC2=C(S1)SC(S2)=C1SC2=C(SCCS2)S1,5.49016905
2362,BOTSAF,C9 H2 O1 S8,O=C1SC2=C(S1)SC(S2)=C1SC2=C(SC=CS2)S1,5.81534509
2363,BOTVEO,C30 H34 O4,CC(C)=CCc1c(O)c(C(=O)C=Cc2ccccc2)c2OC3(C)CCC4C(C3)c2c1OC4(C)C,6.05861488
2364,BOTVIS,C30 H45 N1 O8,CCC(C)C(OC(C)=O)C(C)C1=C(N)C(=O)C2=C(OC3(C)CCC4OC(CCC4(C)C3C2O)C(C)(C)O)C1=O,5.61697411
2365,BOTWOY,C23 H17 N1 O6,Oc1ccccc1C(=O)C=C(O)c1cccc(n1)C(O)=CC(=O)c1ccccc1O,6.2986192899999995
2366,BOTXOY,C16 H12 O5,COCc1c(O)cc2C(=O)c3ccccc3C(=O)c2c1O,6.132085620000001
2367,BOTXUE,C16 H12 O4,COc1ccc2C(=O)c3cc(C)ccc3C(=O)c2c1O,6.030587150000001
2368,BOVBIY,C20 H15 F1 N2 O2,Fc1ccc(cc1)C(=O)C(=O)c1ccnc(NCc2ccccc2)c1,5.577789709999999
2369,BOVBOE01,C14 H19 N3 O2 S1,CN(C)c1cccc2c1cccc2S(=O)(=O)NCCN,6.285829949999999
2370,BOVBUK,C25 H16 N4,N#Cc1c(cc(nc1C1=CNc2ccccc12)c1ccccn1)c1ccccc1,5.65670273
2371,BOVCIY01,C22 H26 N4 O5,COC1=C(C)C(=O)C2=C(C(CO)N3C(C#N)C4CC5C6OCCN6C2C3C5N4C)C1=O,5.50241417
2372,BOVDOG,C22 H16 Cl1 N1 O5,CCOC(=O)C1=C(N)OC2=C(C1c1cccc(Cl)c1)C(=O)c1ccccc1C2=O,5.102134700000001
2373,BOVDUO,C29 H32 N4 O2,CC(CN(Cc1ccccn1)Cc1ccccc1O)N(Cc1ccccn1)Cc1ccccc1O,6.7133208
2374,BOVFEY,C22 H21 Cl1 O8,COc1cc(OCC(O)CCl)c2C(=O)C3=C(COc4cc(OC)c(OC)cc34)Oc2c1,5.938612679999999
2376,BOVROV,C21 H14 I1 N1 O2 S1,IC(C1=NS(=O)(=O)c2ccccc12)=C(c1ccccc1)c1ccccc1,5.84636608
2377,BOVSEM,C21 H20 Cl1 N1 O3,CCOC(=O)C1=C(Nc2ccc(C)cc2)C(=O)CC1c1ccc(Cl)cc1,5.8782033899999995
2378,BOVSIQ,C17 H13 N1 O2,Cc1ccc2C(=O)C(Nc2c1)=CC(=O)c1ccccc1,5.335064149999999
2379,BOVVEO,C16 H12 O5,COc1c(O)cc2C(=O)c3ccccc3C(=O)c2c1OC,6.3018846700000015
2380,BOVWOB,C38 H21 N5,N#Cc1cc2nc3c4cccc5c(ccc(c3nc2cc1C#N)c45)c1ccc(cc1)N(c1ccccc1)c1ccccc1,4.566342520000001
2381,BOVWOZ,C24 H22 O4 S1,CCOC(=O)C1C(CC(=CC1=O)C1=CC=CS1)c1ccc2cc(OC)ccc2c1,5.93017714
2382,BOVWUH,C34 H19 N5,N#Cc1nc2c3cccc4c(ccc(c2nc1C#N)c34)c1ccc(cc1)N(c1ccccc1)c1ccccc1,4.26810575
2383,BOVXUG,C14 H18 N2 O3,CCOC(=O)C(=NNc1c(C)cccc1C)C(C)=O,5.85316892
2384,BOVYER,C20 H15 N1,Cc1ccc(cc1)N=C1c2ccccc2c2ccccc12,6.03711789
2385,BOVZEU,C42 H33 N1 O2,CCCCN1C(=O)c2cccc3c(ccc(C1=O)c23)c1ccc(cc1)C(c1ccccc1)=C(c1ccccc1)c1ccccc1,5.46350189
2387,BOWFOJ,C8 H9 N1 O1 Se1,COc1cccc(c1)C(N)=[Se],5.55901385
2388,BOWGID,C38 H38 N4 S4,CCCCC1=C(SSC2=C(CCCC)C(=S)N(N2c2ccccc2)c2ccccc2)N(N(C1=S)c1ccccc1)c1ccccc1,4.83736792
2389,BOWGOJ,C21 H22 N2 O1 S2,CCCCC1=C(SC(C)=O)N(N(C1=S)c1ccccc1)c1ccccc1,5.728540779999999
2390,BOWLAB,C34 H40 N4 O1,CCCCCCN(CCCCCC)c1ccc(cc1)c1ccc(cc1)C1=C(C#N)C(OC1(C)C)=C(C#N)C#N,4.3505562399999995
2391,BOWLEF,C32 H38 N4 O1 S1,CCCCCCN(CCCCCC)C1=CC=C(S1)c1ccc(cc1)C1=C(C#N)C(OC1(C)C)=C(C#N)C#N,4.1505525599999995
2392,BOWLIJ,C38 H42 N4 O1 S1,CCCCCCN(CCCCCC)c1ccc(cc1)C1=CC=C(S1)c1ccc(cc1)C1=C(C#N)C(OC1(C)C)=C(C#N)C#N,3.86320033
2393,BOWMAB,C29 H24 Br1 N2 O3 P1,COC(=O)C(N1N(C)c2ccc(Br)cc2C1=O)=P(c1ccccc1)(c1ccccc1)c1ccccc1,5.9312656
2394,BOWPEJ,C36 H47 N1 O7,COC1(OC)C23COCCOCCN(CCOCCOCC1(O2)C1CCCCC31)Cc1c2ccccc2cc2ccccc12,5.5386053099999994
2395,BOWQEM,C24 H26 N2 O6,COc1ccc2NC(COC(=O)c3cc(OC)ccc3NC(COC(=O)c2c1)C=C)C=C,6.1299087100000005
2396,BOWQUC,C35 H28 N2 O2 S1,CCC(CC)N1C(=O)c2ccc3c4ccccc4Sc4c(cc(C1=O)c2c34)N(c1ccccc1)c1ccccc1,4.76988369
2397,BOWRUB,C19 H16 N8 O4,COC(=O)C1=NN(N=N1)[C-](C(=O)OC)c1nn(n[n+]1c1ccccc1)c1ccccc1,5.2504367499999995
2398,BOWSOX,C34 H20,c1ccc2c(c1)ccc1c2c2c3ccccc3ccc2c2c3ccccc3c3ccccc3c12,5.62268849
2399,BOWTAK,C56 H42,Cc1ccc(cc1)C1(c2ccc(C)cc2)c2ccccc2c2c3cc4ccc5c(c4cc3ccc12)c1ccccc1C5(c1ccc(C)cc1)c1ccc(C)cc1,4.96226818
2400,BOWTEO,C52 H40,Cc1ccc(cc1)C1(c2ccc(C)cc2)c2ccccc2c2ccc3c4c(ccc1c24)c1ccccc1C3(c1ccc(C)cc1)c1ccc(C)cc1,5.57588491
2401,BOWVIV,C44 H36 O4,COc1cc(OC)c2c(cc3ccc4ccc5cc(c6ccc(C)cc6)c6c(OC)cc(OC)cc6c5c4c3c2c1)c1ccc(C)cc1,5.56853784
2402,BOWXAN,C40 H40 O6,CCCCCOc1ccc(cc1)C1(O)c2ccccc2C(=O)C1=C1C(=O)c2ccccc2C1(O)c1ccc(OCCCCC)cc1,5.1592786099999985
2403,BOWXER,C34 H28 O6,CCOc1ccc(cc1)C1(O)c2ccccc2C(=O)C1=C1C(=O)c2ccccc2C1(O)c1ccc(OCC)cc1,5.16444877
2404,BOXDEA,C36 H22 N2 O2,O=C1C=CC(=O)C(=C1)c1cc(cc(c1)N1c2ccccc2c2ccccc12)N1c2ccccc2c2ccccc12,4.094225
2405,BOXGAW01,C38 H18,c1cc2ccc3cc4c5ccc6ccc7ccc8cccc9c8c7c6c5c9c5ccc6cc(c1)c2c3c6c45,3.874357
2406,BOXKAD,C27 H32 B1 N2 O3 P1,CC(C)(C)P1(=N[N+](=C(c2ccccc2)c2ccccc2)[B-]2(Oc3ccccc3O2)O1)C(C)(C)C,6.10079252
2407,BOXKEH,C37 H36 B1 N2 O3 P1,Cc1cc(C)c(c(C)c1)P1(=N[N+](=C(c2ccccc2)c2ccccc2)[B-]2(Oc3ccccc3O2)O1)c1c(C)cc(C)cc1C,5.86459771
2409,BOXQIO,C17 H10 F1 N1,Fc1cccc2cc3ccc4ccccc4c3nc12,5.783235660000001
2410,BOXSIS,C11 H15 N1 O4 S2,COC(=O)C1=C(C(=O)OC)C(=S)N(S1)C(C)(C)C,5.37043895
2411,BOXSOZ,C33 H24 O2 S1,OC(=CC(=O)C1=CC=CS1)c1ccc(cc1)C(c1ccccc1)=C(c1ccccc1)c1ccccc1,5.75602428
2412,BOXSUF,C28 H21 N1 O2,OC1N(C(=CC(=O)c2ccccc2)c2ccccc2)c2ccccc2c2ccccc12,5.6384710899999995
2413,BOXTAL,C42 H42 Cl2,CCCCCCc1ccc(cc1)c1cc(Cl)c2c(ccc3c2ccc2cc(cc(Cl)c32)c2ccc(CCCCCC)cc2)c1,5.72663598
2414,BOXXAP,C12 H8 Br1 F3 N2 O3,CCOC(=O)C1=CC2=C(Br)C=C(N2C=N1)C(=O)C(F)(F)F,5.83738632
2415,BOXYES,C35 H30 O14,COC(=O)CC1Cc2cc3c(c(O)c2C(C)O1)C(=O)C1CC3(OC(C)=O)c2c(O)c3C(=O)C4=C(C(C)OC5CC(=O)OC45)C(=O)c3c(O)c12,5.44472603
2416,BOYDIF,C9 H11 N1 O3,OCC[NH+]=Cc1cccc(O)c1[O-],5.41833099
2417,BOYLOS,C27 H36 N2 O1 P2,CC(C)c1cccc(C(C)C)c1N1C=CN(P1P=C=O)c1c(cccc1C(C)C)C(C)C,5.863237140000001
2418,BOYMAF,C33 H46 N2 O1 P2,CC(C)c1cccc(C(C)C)c1NC=C1N(P2CC(=C(C)CP2C1=O)C)c1c(cccc1C(C)C)C(C)C,5.8096307099999995
2419,BOYWOE,C23 H15 F1 O2,Fc1ccc(cc1)C1=CC(=C(O1)c1ccccc1)C(=O)c1ccccc1,5.8305834700000005
2420,BOYZEV,C13 H10 N2 O4,COc1cc2C(=O)C(=O)Nc3cc[n+](C)c(c1[O-])c23,4.17803606
2421,BOZDAW,C33 H29 N3 O3 S1,COC(=O)CCCN1c2ccccc2C(C)(C)C21Oc1c(cc3ccccc3c1N=C2)C1=Nc2ccccc2S1,5.86187657
2422,BOZDAY,C39 H24 N6 S2,N#CSC1=C2NC(=C1)C1=NC(=C(C3=CC=C(N3)C(=C3NC(=C2c2ccccc2)C=C3)c2ccccc2)c2ccccc2)C(=C1)SC#N,3.74809617
2423,BOZDEA,C14 H11 I1 O6,COC(=O)C(I)=C1OC(=O)C(=C1O)c1ccc(OC)cc1,5.10376738
2424,BOZDIE,C14 H12 O6,COC(=O)C=C1OC(=O)C(=C1O)c1ccc(OC)cc1,5.41751465
2425,BOZDOM,C36 H24 N2 O3 S2,O=S(=O)(c1ccc(cc1)N1c2ccccc2Oc2ccccc12)c1ccc(cc1)N1c2ccccc2Sc2ccccc12,5.69180541
2426,BOZDUS,C36 H24 N2 O3 S2,O=S(=O)(c1ccc(cc1)N1c2ccccc2Oc2ccccc12)c1ccc(cc1)N1c2ccccc2Sc2ccccc12,5.6523489
2427,BOZFIG,C22 H18 S10,CSC1=C(SC)SC(S1)=C1C=CSc2c3SC=CC(=C4SC(=C(SC)S4)SC)c3ccc12,5.071930060000001
2428,BOZFOM,C17 H12 O1 S6,CSC1=C(SC)SC(S1)=C1C=CSc2c3SC=CC(=O)c3ccc12,4.92253955
2430,BOZKEH,C44 H30 S2,S(c1ccccc1)c1c(cc2ccccc2c1c1c(Sc2ccccc2)c(cc2ccccc12)c1ccccc1)c1ccccc1,5.96800097
2431,BOZSER,C25 H21 N1 O1 S1,CC1Nc2ccccc2C21CC(=O)C(=C2c1ccccc1)Sc1ccccc1,5.962558700000001
2432,BOZSIS,C48 H44 P4,CC1=C(P2P3C(=C(C)C(=C3C3=C(C)C(=C(P3P3C(=C(C)C(=C3C2=C1C)C)c1ccccc1)c1ccccc1)C)C)c1ccccc1)c1ccccc1,4.66430352
2433,BOZSIV,C18 H13 N1 O1,O=C(CC1=CNc2ccccc12)C#Cc1ccccc1,6.04745821
2434,BOZSOB,C19 H15 N1 O1,CN1C=C(CC(=O)C#Cc2ccccc2)c2ccccc12,5.94078959
2435,BOZSUH,C24 H19 N1 O1 S1,O=C1CC2(CNc3ccccc23)C(=C1Sc1ccccc1)c1ccccc1,5.87167266
2436,BOZXUK,C29 H22 O1,COc1cccc2cc(C)c3ccc4cc(C)c5ccc6ccccc6c5c4c3c12,5.61751833
2437,BPNOPZ,C9 H8 Br1 N3 O1,Brc1ccc(cc1)C1=NN(CC1)N=O,6.107051139999999
2438,BPNTZS10,C17 H10 Br1 N1 S2,Brc1ccc(cc1)C1=C([S-])SC2=[N+]1C=Cc1ccccc21,4.18647159
2439,BPPRTO,C15 H8 Br2 O3,Brc1ccc(cc1)C(=O)C(=O)C(=O)c1ccc(Br)cc1,6.581345590000001
2440,BPTPCA01,C25 H20 O1 S1,O=CC1=C(SC(C(=C1)Cc1ccccc1)c1ccccc1)c1ccccc1,5.98106244
2441,BPXBTZ,C13 H7 Br2 N3 O1,Brc1ccc([N+]2=Nc3ccccc3C(=O)[N-]2)c(Br)c1,5.911401290000001
2442,BPYCPY10,C17 H15 N1,C(N1C=CC=CC1=C1C=CC=C1)c1ccccc1,5.24798772
2443,BRAMNQ10,C10 H6 Br1 N1 O2,NC1=C(Br)C(=O)c2ccccc2C1=O,5.6659546
2444,BRBOYM,C15 H10 Br2 O2,Brc1cccc(c1)C(=O)CC(=O)c1cccc(Br)c1,6.864071879999999
2445,BRBUAB,C28 H40 Br2 N2,CC(C)(C)c1cc(Br)c(N=Nc2c(Br)cc(cc2C(C)(C)C)C(C)(C)C)c(c1)C(C)(C)C,6.03711789
2446,BRCDOP,C10 H10 Br1 N1 O4 S1,CC1C([n+]2c(C)cc(Br)c([O-])c2S1=O)C(O)=O,5.496427669999999
2447,BRFUSO02,C19 H12 Br2 O1,BrC1=CC(C=C(Br)C1=O)=C(c1ccccc1)c1ccccc1,5.2947913
2448,BRMANC,C15 H11 Br1,Cc1c2ccccc2c(Br)c2ccccc12,5.31193448
2449,BRMOTR,C8 H7 Br1 O2,COC1=C(Br)C=CC=CC1=O,5.31193448
2451,BRPDON,C17 H12 Br2 O1,BrC(=Cc1ccccc1)C(=O)C(Br)=Cc1ccccc1,6.153038390000001
2452,BRPHAN,C26 H17 Br1,Brc1c2cccc(c3ccccc3)c2cc2c(cccc12)c1ccccc1,5.22458593
2453,BRPHAS,C12 H9 As1 Br1 N1,Br[As]1c2ccccc2Nc2ccccc12,5.552211
2454,BRPSYD10,C7 H4 Br1 N3 O2,BrC1=C([O-])ON=[N+]1c1cccnc1,6.24991092
2455,BRUDBR10,C19 H18 Br2 O4,CC1(C)Oc2c3C=C(Br)C(=O)Oc3c(Br)c3OC4(C)CCC1C(C4)c23,5.89453023
2456,BSALAN,C13 H10 Br1 N1 O1,Oc1ccccc1C=Nc1ccccc1Br,5.4362905
2458,BSFULC,C16 H8 Cl4,ClC1=C(Cl)C(=C2C=Cc3ccccc3C=C2)C(=C1Cl)Cl,4.6520583900000005
2459,BTANTA,C28 H19 N3 O1,O=C1N2N(N=C(c3ccccc3)c3ccccc23)C(=C1c1ccccc1)c1ccccc1,5.34458814
2460,BTANTB,C23 H17 N3 O1 S1,CSC1=NC2(N(N=C(c3ccccc3)C2=O)c2ccccc12)c1ccccc1,5.66758728
2461,BTCPYD10,C10 H14 N2 S1,CCCCc1cc(ccn1)C(N)=S,6.24855035
2462,BTFPBU,C32 H20 F8 P2,FC1(F)C(=C(C2=C(P(c3ccccc3)c3ccccc3)C(F)(F)C2(F)F)C1(F)F)P(c1ccccc1)c1ccccc1,5.86106022
2463,BTYBTT,C14 H16 S5,CC(C)(C)C1=CC(SS1)=C1CCCC2=C1SSC2=S,4.38810796
2464,BTYPOD,C18 H12 O2 S2,O=C1C2SC(C3SC2c2ccccc2C3=O)c2ccccc12,6.23630523
2465,BTZQXA,C20 H14 N6,N(c1ccc2nccnc2c1)c1ccccc1N1N=C2C=CC=CC2=N1,5.57642913
2466,BUAZBZ04,C36 H58 N2,CC(C)(C)c1cc(c(N=Nc2c(cc(cc2C(C)(C)C)C(C)(C)C)C(C)(C)C)c(c1)C(C)(C)C)C(C)(C)C,6.37154581
2467,BUBBAC,C22 H19 N1 O2 S1,O=C(CC1C[S+](=Nc2ccccc12)([O-])c1ccccc1)c1ccccc1,5.90840804
2468,BUBBOQ,C22 H18 Cl1 N1 O2 S1,Clc1ccc(cc1)C(=O)CC1C[S+](=Nc2ccccc12)([O-])c1ccccc1,5.7505820100000005
2469,BUBBUW,C23 H21 N1 O3 S1,COc1ccccc1C(=O)CC1C[S+](=Nc2ccccc12)([O-])c1ccccc1,6.0177978
2470,BUBFIQ,C31 H26 F6 N2 O5,CCOC1=CC(=C2CCCCC2C2(OC(=O)C(=N2)c2ccccc2)C(F)(F)F)C2(OC(=O)C(N12)c1ccccc1)C(F)(F)F,5.3611870800000005
2471,BUBFOV,C20 H18 N2 O4,CCOC(=O)COc1cccc2ccc(C=Nc3ccccc3O)nc12,5.97616438
2475,BUBRUO,C15 H12 N2 O1,Cc1ccccc1N=C1C(=O)Nc2ccccc12,5.9407895900000005
2476,BUBWAX,C23 H18 N2,N#Cc1ccc(Nc2ccc(cc2)C=C2CCc3ccccc23)cc1,5.7761607
2477,BUBZAA,C28 H25 N3 O2 S1,CC(C)(C)OC(=O)NC(C1CSc2ccccc2C1=C(C#N)C#N)c1ccc2ccccc2c1,5.68990062
2478,BUCBEJ,C24 H23 Br2 N1 O1 S1,CCCCCCOc1ccc(cc1)N1c2ccc(Br)cc2Sc2cc(Br)ccc12,5.80255575
2479,BUCCEK,C11 H17 N3 O1 S1,CC1(C)C2CCC1(C)C(=O)C2=NNC(N)=S,5.91248974
2480,BUCMAQ,C32 H26,CC1(C)c2ccccc2c2ccc(cc12)C#Cc1ccc2c3ccccc3C(C)(C)c2c1,5.61534142
2481,BUCMEU,C32 H28,CC1(C)c2ccccc2c2ccc(C=Cc3ccc4c5ccccc5C(C)(C)c4c3)cc12,5.38839847
2482,BUCPCD,C19 H23 Cl1 O1,CC(C)(C)C1=CC(=C(C1=O)C(C)(C)C)c1ccc(Cl)cc1,6.02514488
2483,BUCWON,C28 H25 Cl1 N2 O5,COc1ccc2N(C(=C(CC(=O)NC(Cc3ccccc3)C(O)=O)c2c1)C)C(=O)c1ccc(Cl)cc1,6.17780075
2484,BUCZUU,C32 H24 N2 O2,Cc1ccc(cc1)N=C1OC(=C2C(OC(=C12)c1ccccc1)=Nc1ccc(C)cc1)c1ccccc1,4.3821214500000005
2485,BUDCAH,C16 H17 N3 O2,CCOC(=O)c1ccc(cc1)N=NN(C)c1ccccc1,5.95221836
2486,BUDDAI,C18 H20 Br1 N3 O2,CCOC(=O)c1cc(C)c(N=Nc2ccc(NC)c(C)c2)c(Br)c1,5.616701989999999
2487,BUDJOA,C22 H19 N1 O1 S2,O=C1C(CN(Cc2ccccc2)CC1=CC1=CC=CS1)=CC1=CC=CS1,5.75439159
2488,BUDJUI,C41 H32 N2 O1,CCN1c2ccccc2c2cc(ccc12)N=Cc1cc(ccc1O)C(c1ccccc1)=C(c1ccccc1)c1ccccc1,5.784052
2489,BUDKAP,C40 H29 N1 O1,Oc1ccc(cc1C=Nc1ccc2c(Cc3ccccc23)c1)C(c1ccccc1)=C(c1ccccc1)c1ccccc1,5.71738412
2490,BUDKIX,C60 H44 N2 O2,Oc1ccc(cc1C=Nc1ccc(cc1)N=Cc1cc(ccc1O)C(c1ccccc1)=C(c1ccccc1)c1ccccc1)C(c1ccccc1)=C(c1ccccc1)c1ccccc1,5.50132571
2491,BUDKOD,C54 H40 N2,c1ccc(cc1)C(c1ccccc1)=C(c1ccccc1)c1ccc(cc1)C=NN=Cc1ccc(cc1)C(c1ccccc1)=C(c1ccccc1)c1ccccc1,5.50704011
2492,BUDMOD,C14 H10 N2 O4,OC(=O)c1ccc(cc1)N=Nc1ccc(cc1)C(O)=O,6.19494392
2493,BUDNAQ,C8 H6 N2 O3,ON=C1C(=O)Nc2ccc(O)cc12,6.09616659
2494,BUDNEV,C22 H10 F6 N2,FC(F)(F)c1c2ccccc2nc2ccc3nc4ccccc4c(c3c12)C(F)(F)F,5.57670126
2495,BUDNIZ,C24 H10 F10 N2,FC(F)(F)C(F)(F)c1c2ccccc2nc2ccc3nc4ccccc4c(c3c12)C(F)(F)C(F)(F)F,5.56091865
2496,BUDPOH,C20 H21 N1 O4 S1,CCN(CC)c1ccc2C=C(C(=O)Oc2c1)S(=O)(=O)Cc1ccccc1,5.74813298
2497,BUDREA,C24 H12 F5 N7,Cc1nc(Nc2c(F)c(F)c(F)c(F)c2F)c2N=NN(c2n1)c1c2ccccc2nc2ccccc12,5.63194036
2498,BUDRIE,C29 H22 F3 N7 O2,Cc1nc2N(N=Nc2c(n1)N(C(=O)OC(C)(C)C)c1c(F)cc(F)cc1F)c1c2ccccc2nc2ccccc12,5.58486467
2499,BUDROK,C24 H14 F3 N7,Cc1nc(Nc2c(F)cc(F)cc2F)c2N=NN(c2n1)c1c2ccccc2nc2ccccc12,5.614252960000001
2500,BUDSAX,C24 H14 F3 N7,Cc1nc(Nc2c(F)cc(F)cc2F)c2N=NN(c2n1)c1c2ccccc2nc2ccccc12,5.576701249999999
2501,BUDSEB,C29 H22 F3 N7 O2,Cc1nc2N(N=Nc2c(n1)N(C(=O)OC(C)(C)C)c1c2ccccc2nc2ccccc12)c1c(F)cc(F)cc1F,5.59166752
2502,BUDVED,C23 H27 N1 O3,CCCCN(CCCC)c1ccc(cc1)C1=Cc2cc(C=O)c(O)cc2O1,5.81507299
2503,BUDVII,C15 H15 N1 O1,CN(CC(=O)c1ccccc1)c1ccccc1,5.618334669999999
2504,BUDVOL10,C11 H12 Cl1 N3 O2,CNC(C)=C(N=O)C(=O)Nc1ccc(Cl)cc1,6.18950164
2505,BUDXOP,C33 H18 O1,O=C1c2ccccc2c2c3c1cccc3c(c1ccccc1)c1c3cccc4cccc(c34)c21,4.98104403
2506,BUDZIK,C15 H10 Cl1 N3 O1 S2,Clc1ccc(cc1)C(=O)NC(=S)NC1=Nc2ccccc2S1,5.8958908
2507,BUDZUY,C31 H32 N4 O4,CC(C)(C)OC(=O)N1CCCC1CNC1=Nc2c(N1)c(ccc2c1ccc(C=O)cc1)c1ccc(C=O)cc1,5.62160004
2508,BUFBAG,C21 H18 F1 N5,CC(C)Nc1cc(ccn1)c1nc2cccnc2nc1c1ccc(F)cc1,5.37479278
2509,BUFBIO,C18 H20 N2 O4,COc1ccc(C=NN=Cc2ccc(OC)cc2OC)c(OC)c1,5.9745317
2510,BUFBOV,C18 H26 N2 O5,CCOC(=O)CN(CCNC(=O)OC(C)(C)C)C1=CC=CC=CC1=O,5.877659169999999
2511,BUFCOV,C12 H9 Br1 N2 O1 S2,Brc1ccc(NC(=S)NC(=O)C2=CC=CS2)cc1,5.8795639699999995
2512,BUFDIQ,C22 H19 Cl1 N2 O4,COc1cccc(C=Nc2ccc(Cl)c(c2)N=Cc2cccc(OC)c2O)c1O,6.10487424
2513,BUFDUB,C36 H34,CCCCCc1c2c3cccc4cccc(c34)c2c(CCCCC)c2c3cccc4cccc(c34)c12,5.184313080000001
2514,BUFFAJ,C43 H35 P3,c1ccc(cc1)P(c1ccccc1)C(P(c1ccccc1)c1ccccc1)=P(c1ccccc1)(c1ccccc1)c1ccccc1,5.8920812
2515,BUFFAL,C24 H20 Cl2 O1,Cc1cc(C)c(c(C)c1)C(=CC(=O)c1ccccc1)c1ccc(Cl)c(Cl)c1,6.136439439999999
2516,BUFFEP,C26 H26 O1,Cc1c(C)c(C)c(c(C)c1C)C(=CC(=O)c1ccccc1)c1ccccc1,5.96038178
2517,BUFFOY,C25 H20 O2,CC(C=CC=C(C)c1ccc2ccc3cccc4ccc1c2c34)=CC(O)=O,5.038732169999999
2518,BUFGAK,C20 H22 N2 O2,CCN(CC)CCNc1cccc2C(=O)c3ccccc3C(=O)c12,5.02730338
2519,BUFGEO,C26 H36 N4 O2,CCN(CC)CCNc1cccc2C(=O)c3c(NCCN(CC)CC)cccc3C(=O)c12,5.00471793
2520,BUFGIT,C18 H18 O4,O=C1OC2(CCCCC2)OC(=O)C1=CC=Cc1ccccc1,5.69425444
2522,BUFJAP,C36 H36 N2 O6,CCCCCCN1C(=O)c2ccc(cc2C1=O)C1=CC=C(O1)C1=CC=C(O1)c1ccc2C(=O)N(CCCCCC)C(=O)c2c1,4.93287988
2523,BUFJOB,C19 H18 N2,CCCCc1c2Nc3ccccc3c2cc2cnccc12,5.80092306
2524,BUFLIZ,C27 H20 N2 O3,COc1ccc(cc1)C1=C(N2C=CC=N2)C(=C(O1)c1ccccc1)C(=O)c1ccccc1,5.93616365
2525,BUFQEY,C46 H28 S2,S1c2ccccc2C2(c3ccccc13)c1ccc3ccccc3c1c1c3ccccc3ccc1C12c2ccccc2Sc2ccccc12,5.35057464
2526,BUFQUQ,C21 H13 N1 O2,O=C1Oc2c3Nc4ccccc4c3ccc2C(=C1)c1ccccc1,5.93208194
2527,BUFSAZ,C25 H22 N2 O2,CCN(CC)c1ccc2c(Oc3cc(N)ccc3C3=C2c2ccccc2C3=O)c1,4.52035528
2528,BUFSIF,C24 H20 N4 O3,CN1C(=O)N(C)C2=C(C1=O)C1=C(CCN1C(=N2)c1ccccc1)C(=O)c1ccccc1,5.26240975
2529,BUFSIG,C17 H19 N1 O4,CCN(CC)c1ccc2C=C(C(O)=CC(C)=O)C(=O)Oc2c1,5.18268039
2533,BUFTAY,C39 H32 N2 O10,COC(=O)C1C(C(=O)OC)C2(C3N1C1C(C4N(C=Cc5ccccc45)C(=C1C(=O)OC)C(=O)OC)c1ccccc31)C(=O)c1ccccc1C2=O,5.20689853
2534,BUFTEC,C22 H15 Cl1 N2 O2 S1,CC1=Cc2c(ccc3nc4ccccc4c(Cl)c23)N1S(=O)(=O)c1ccccc1,5.40717432
2538,BUFVEE,C22 H28 N2 O6,CCOC(=O)C=C1NC(C)(C)CC21C(=CC(C=C2OC)=C(C#N)C(=O)OCC)OC,5.6297634500000004
2539,BUFVII,C15 H19 N1 O3,CCOC(=O)C=C1NC(C)(C)CC21C=CC(=O)C=C2,6.3084154
2540,BUFXAE,C34 H42 N2 O2,CC(C)(C)c1cc2N=C3C=C4Oc5c(cc(cc5C(C)(C)C)C(C)(C)C)N=C4C=C3Oc2c(c1)C(C)(C)C,4.282527780000001
2541,BUFXEI,C26 H26 N2 O2,CC(C)(C)c1cc2N=C3C=C4Oc5ccccc5N=C4C=C3Oc2c(c1)C(C)(C)C,4.32171217
2542,BUFXIM,C26 H25 Cl1 N2 O2,CC(C)(C)c1cc2N=C3C=C4Oc5ccc(Cl)cc5N=C4C=C3Oc2c(c1)C(C)(C)C,4.185655239999999
2543,BUFXUY,C27 H26 N2 O5,COC(=O)C=CC1=C(C2CCCN2C21C(=O)N(Cc1ccccc1)c1ccccc21)C(=O)OC,6.257530109999999
2544,BUFYAF,C24 H27 F1 N2 O5,CCCCN1C(=O)C2(N3CCCC3C(=C2C=CC(=O)OC)C(=O)OC)c2cc(F)ccc12,6.16936522
2545,BUFYEH,C27 H20 F6 N2 S2,CCC12SC(=NC1=C1C(=C3N=C(SC23CC)c2ccccc2)C(F)(F)C(F)(F)C1(F)F)c1ccccc1,4.538314789999999
2546,BUFYIN,C40 H28 N2,N#CC(=Cc1ccncc1)c1ccc(cc1)c1ccc(cc1)C(c1ccccc1)=C(c1ccccc1)c1ccccc1,5.2790087
2547,BUFZUZ,C22 H20 N2 O2,COc1ccc(cc1)N=Cc1cccc(C=Nc2ccc(OC)cc2)c1,6.043104400000001
2548,BUGBIP,C24 H22 Br1 N1 O1 S1,CC1N(C2=C(C(=O)CC(C)(C)C2)C2=C1Sc1ccccc21)c1ccc(Br)cc1,5.91140128
2549,BUGBOV,C27 H23 N1 O3 S1,COC(=O)CCc1ccccc1C1=C(C(=O)N(C1=S)c1ccccc1)c1ccc(C)cc1,5.38295619
2550,BUGBUB,C26 H20 Cl1 N1 O3 S1,COC(=O)Cc1ccccc1C1=C(C(=O)N(C1=S)c1ccc(C)cc1)c1ccc(Cl)cc1,5.47737969
2551,BUGDEO,C15 H15 N1 O3,COC1=CC=CC(=O)C1=CNc1ccc(O)cc1C,5.31275082
2552,BUGGES,C17 H20 N2 O2,C[N+](C)=C1C=CC(C=C1)=C1C(=O)C(=C1[O-])N1CCCCC1,4.8604976
2553,BUGGUH,C16 H17 N1 O4,COC(=O)c1cc(N(C)C)c2ccccc2c1C(=O)OC,6.08773106
2554,BUGPAX,C15 H20 N2 O2,CC(=O)C1=CC(=NC1(C)C)C1=C(C)C(=O)C(C)(C)N1,5.20308894
2555,BUGPEZ,C14 H6 N6 O1,O1N=C2N=C3c4cccnc4c4ncccc4C3=NC2=N1,5.481733520000001
2556,BUGQEC,C27 H20 N4,Nc1ccc(cc1)c1ccc(cc1)c1cc(nc(c1)c1ccccn1)c1ccccn1,5.70268996
2557,BUGRAX,C33 H33 N3 O2 S1,CN1CC(=Cc2ccc(C)cc2)C(=O)C2(C1)C(C1CSCN1C12C(=O)Nc2ccccc12)c1ccc(C)cc1,6.18841319
2558,BUGSUU,C17 H18 N2 O3,COc1ccc2C(=O)N(CCN(C)C)C(=O)c3cccc1c23,5.6991524799999995
2559,BUHFUH,C16 H14 N2 O2,CC1=C(N=Cc2c(O)ccc3ccccc23)C(=NO1)C,5.85725063
2560,BUHGET,C46 H42 Br1 N3 O1,CC1(C)CC(=O)C2=C(C1)N(C1C(C3N(Cc4ccccc4)C=Cc4ccccc34)c3ccccc3C2N1Cc1ccccc1)c1ccc(Br)cc1,5.99167487
2561,BUHGIW,C18 H19 N1 O2,CN(C)c1ccc(C=CC(=O)c2ccc(C)cc2O)cc1,5.49152962
2562,BUHGOC,C18 H19 N1 O3,COc1ccc(c(O)c1)C(=O)C=Cc1ccc(cc1)N(C)C,5.57479646
2563,BUHJAS,C25 H18 Br1 N1 O2,Cc1ccc(cc1)C(=O)C(=C([O-])c1ccccc1Br)c1[nH+]ccc2ccccc12,5.652893130000001
2564,BUHKEW,C12 H11 N3 O2 S1,CC(=NNC(N)=S)C1=Cc2ccccc2OC1=O,5.20853121
2565,BUHKOF,C12 H11 N1 O2 S2,CSC(SC)=C1C(=O)ON=C1c1ccccc1,5.941061699999999
2566,BUHKOG,C15 H11 N3,c1ccc(cc1)c1cnnc(n1)c1ccccc1,6.74026007
2567,BUHKUL,C12 H12 N2 O2 S1,CNC(SC)=C1C(=O)ON=C1c1ccccc1,6.20419579
2568,BUHLEW,C18 H17 N3 O2,CN(C)C(Nc1ccccc1)=C1C(=O)ON=C1c1ccccc1,6.1195683800000005
2569,BUHLEX,C46 H28 N10,N#CC1=C(NC(=C(C#N)C1c1ccc(cc1)c1ccc(cc1)C1C(=C(NC(=C1C#N)c1ccncc1)c1ccncc1)C#N)c1ccncc1)c1ccncc1,5.938884779999999
2570,BUHLUM,C18 H25 N3 O2,CC(C)(C)NC(NC(C)(C)C)=C1C(=O)ON=C1c1ccccc1,6.14569132
2571,BUHLUN,C19 H12 O3,OC1=C(Oc2cc3ccccc3cc2C1=O)c1ccccc1,5.73126192
2572,BUHMAT,C20 H27 N3 O2,CC(C)(C)N1CCN(C1=C1C(=O)ON=C1c1ccccc1)C(C)(C)C,6.19222278
2573,BUHMEX,C16 H19 N1 O2 S2,CC(C)SC(SC(C)C)=C1C(=O)ON=C1c1ccccc1,5.78105875
2574,BUHMOR,C32 H49 N1 O3,CC(C)(C)c1cc(c(O)c(c1)C1(C=C(C=C(C1=O)C(C)(C)C)C(C)(C)C)N1CCOCC1)C(C)(C)C,5.97970186
2575,BUHRUR,C14 H12 N4,Nc1ccccc1C(=NNc1ccccc1)C#N,5.65207678
2576,BUJBEN,C14 H11 N1 O1 S1,O=C(NC(=S)c1ccccc1)c1ccccc1,6.05480528
2577,BUJMEY,C30 H40 O3,CC(C)C1=C2C3=C(CC4C(C)(C)CCCC4(C)C3=C(O)C1=O)C(=O)C12CCC2(CC12)C(C)C,5.60364053
2578,BUJNIE,C28 H21 N3 O1,O=C1N(N=C(c2ccccc2)C1=C(Nc1ccccc1)c1ccccc1)c1ccccc1,5.65316524
2579,BUJNOK,C29 H23 N3 O1,O=C1N(N=C(c2ccccc2)C1=C(NCc1ccccc1)c1ccccc1)c1ccccc1,5.870856320000001
2580,BUJNOL,C37 H31 N1 O5,COc1cc2C3C(CCC(=O)C3C(=O)c3ccccc3)C(C(C(=O)c3ccc(cc3)C#N)c2cc1OC)c1ccccc1,5.5048632
2581,BUJVAE,C14 H12 Br1 N1 O1 S1,CSc1ccccc1N=Cc1cc(Br)ccc1O,5.62350483
2582,BUJVEI,C14 H11 Cl2 N1 O1 S1,CSc1ccccc1N=Cc1cc(Cl)cc(Cl)c1O,5.5603744200000005
2583,BUJXEK,C25 H22 N2,CC(Nc1cccc2ccccc12)=CC(C)=Nc1cccc2ccccc12,5.8787476199999995
2584,BUJXUB,C38 H34 P2,CC1=C2C(C(c3ccccc3)C3=C(C)C(=C(P3P2C(=C1C)c1ccccc1)c1ccccc1)C)c1ccccc1,5.8104470500000005
2585,BUKFIZ,C20 H19 N3 O2,Cc1cccc(Nc2ccccc2C(=O)NN=CC2=CC=CO2)c1C,5.97670862
2586,BUKHOE10,C23 H22 N4 O2,O=C1NC(=O)C2=Nc3c4CCCCc5cccc(CCCN(c3ccc4)C2=N1)c5,5.5307140100000005
2588,BUKQAB,C22 H6 F18 O2,FC(F)(F)C(F)(F)C(F)(F)C(F)(F)c1ccc2C(=O)C(=O)c3ccc(cc3c2c1)C(F)(F)C(F)(F)C(F)(F)C(F)(F)F,5.93262617
2589,BUKQIJ,C32 H12 F18 N2,FC(F)(F)C(F)(F)C(F)(F)C(F)(F)c1ccc2c(c1)c1cc(ccc1c1nc3cc4ccccc4cc3nc21)C(F)(F)C(F)(F)C(F)(F)C(F)(F)F,4.812061330000001
2590,BUKSOP,C17 H26 N2 O4 S2,COC(=O)C1CSC(=S)N1C(=O)C(C)CC(C)C(=O)N1CCCCC1,6.613182910000001